 Entering Gaussian System, Link 0=/opt/g09/g09
 Input=test_opt.com
 Output=test_opt.log
 Initial command:
 /opt/g09/l1.exe /home/andersx/scr/Gau-11591.inp -scrdir=/home/andersx/scr/
 Entering Link 1 = /opt/g09/l1.exe PID=     11594.
  
 Copyright (c) 1988,1990,1992,1993,1995,1998,2003,2009,2010,
            Gaussian, Inc.  All Rights Reserved.
  
 This is part of the Gaussian(R) 09 program.  It is based on
 the Gaussian(R) 03 system (copyright 2003, Gaussian, Inc.),
 the Gaussian(R) 98 system (copyright 1998, Gaussian, Inc.),
 the Gaussian(R) 94 system (copyright 1995, Gaussian, Inc.),
 the Gaussian 92(TM) system (copyright 1992, Gaussian, Inc.),
 the Gaussian 90(TM) system (copyright 1990, Gaussian, Inc.),
 the Gaussian 88(TM) system (copyright 1988, Gaussian, Inc.),
 the Gaussian 86(TM) system (copyright 1986, Carnegie Mellon
 University), and the Gaussian 82(TM) system (copyright 1983,
 Carnegie Mellon University). Gaussian is a federally registered
 trademark of Gaussian, Inc.
  
 This software contains proprietary and confidential information,
 including trade secrets, belonging to Gaussian, Inc.
  
 This software is provided under written license and may be
 used, copied, transmitted, or stored only in accord with that
 written license.
  
 The following legend is applicable only to US Government
 contracts under FAR:
  
                    RESTRICTED RIGHTS LEGEND
  
 Use, reproduction and disclosure by the US Government is
 subject to restrictions as set forth in subparagraphs (a)
 and (c) of the Commercial Computer Software - Restricted
 Rights clause in FAR 52.227-19.
  
 Gaussian, Inc.
 340 Quinnipiac St., Bldg. 40, Wallingford CT 06492
  
  
 ---------------------------------------------------------------
 Warning -- This program may not be used in any manner that
 competes with the business of Gaussian, Inc. or will provide
 assistance to any competitor of Gaussian, Inc.  The licensee
 of this program is prohibited from giving any competitor of
 Gaussian, Inc. access to this program.  By using this program,
 the user acknowledges that Gaussian, Inc. is engaged in the
 business of creating and licensing software in the field of
 computational chemistry and represents and warrants to the
 licensee that it is not a competitor of Gaussian, Inc. and that
 it will not use this program in any manner prohibited above.
 ---------------------------------------------------------------
  

 Cite this work as:
 Gaussian 09, Revision B.01,
 M. J. Frisch, G. W. Trucks, H. B. Schlegel, G. E. Scuseria, 
 M. A. Robb, J. R. Cheeseman, G. Scalmani, V. Barone, B. Mennucci, 
 G. A. Petersson, H. Nakatsuji, M. Caricato, X. Li, H. P. Hratchian, 
 A. F. Izmaylov, J. Bloino, G. Zheng, J. L. Sonnenberg, M. Hada, 
 M. Ehara, K. Toyota, R. Fukuda, J. Hasegawa, M. Ishida, T. Nakajima, 
 Y. Honda, O. Kitao, H. Nakai, T. Vreven, J. A. Montgomery, Jr., 
 J. E. Peralta, F. Ogliaro, M. Bearpark, J. J. Heyd, E. Brothers, 
 K. N. Kudin, V. N. Staroverov, T. Keith, R. Kobayashi, J. Normand, 
 K. Raghavachari, A. Rendell, J. C. Burant, S. S. Iyengar, J. Tomasi, 
 M. Cossi, N. Rega, J. M. Millam, M. Klene, J. E. Knox, J. B. Cross, 
 V. Bakken, C. Adamo, J. Jaramillo, R. Gomperts, R. E. Stratmann, 
 O. Yazyev, A. J. Austin, R. Cammi, C. Pomelli, J. W. Ochterski, 
 R. L. Martin, K. Morokuma, V. G. Zakrzewski, G. A. Voth, 
 P. Salvador, J. J. Dannenberg, S. Dapprich, A. D. Daniels, 
 O. Farkas, J. B. Foresman, J. V. Ortiz, J. Cioslowski, 
 and D. J. Fox, Gaussian, Inc., Wallingford CT, 2010.
 
 ******************************************
 Gaussian 09:  EM64L-G09RevB.01 12-Aug-2010
                 6-Sep-2012 
 ******************************************
 %mem = 3900mb
 %nprocs= 1
 Will use up to    1 processors via shared memory.
 -----------------------
 #t opt=modredundant pm6
 -----------------------
 --------
 No Title
 --------
 Symbolic Z-matrix:
 Charge =  0 Multiplicity = 1
 C                    -8.2059   -4.5733    0. 
 O                    -8.51704  -5.15039   1.03758 
 C                    -8.5982   -5.1117   -1.3885 
 H                    -9.19986  -4.38648  -1.89531 
 H                    -7.71389  -5.3034   -1.95961 
 H                    -9.15335  -6.01942  -1.27528 
 N                    -7.47956  -3.38566  -0.14813 
 H                    -7.20835  -2.88828  -0.97219 
 C                    -7.11044  -2.87909   1.15829 
 H                    -8.01097  -2.68372   1.74052 
 C                    -6.25009  -3.88585   1.9145 
 C                    -6.31737  -1.58541   1.0403 
 H                    -6.78568  -4.83145   1.9987 
 C                    -4.94409  -4.10729   1.15889 
 C                    -5.94584  -3.34845   3.30887 
 O                    -6.06795  -1.10155  -0.09426 
 H                    -4.40769  -3.16215   1.07469 
 H                    -4.32874  -4.82683   1.69899 
 H                    -5.16104  -4.49139   0.16214 
 H                    -6.87905  -3.18998   3.84935 
 H                    -5.3309   -4.06769   3.84982 
 H                    -5.40982  -2.40303   3.22547 
 N                    -5.96074  -1.09597   2.30254 
 H                    -6.15895  -1.48048   3.20414 
 C                    -5.19476   0.15351   2.18858 
 H                    -4.9363    0.50382   3.16602 
 H                    -4.3022   -0.02534   1.62622 
 H                    -5.78823   0.89152   1.69056 
 
 The following ModRedundant input section has been read:
 D       1       3       6       7 F                                           
 D       3       6       7       9 F                                           
 D       6       7       9      12 F                                           
 D       7       9      12      23 F                                           
 D       9      12      23      25 F                                           
 D      12      23      25      26 F                                           
 D       7       9      11      14 F                                           

 GradGradGradGradGradGradGradGradGradGradGradGradGradGradGradGradGradGrad
 Initialization pass.
                           ----------------------------
                           !    Initial Parameters    !
                           ! (Angstroms and Degrees)  !
 --------------------------                            --------------------------
 ! Name  Definition              Value          Derivative Info.                !
 --------------------------------------------------------------------------------
 ! R1    R(1,2)                  1.2274         estimate D2E/DX2                !
 ! R2    R(1,3)                  1.54           estimate D2E/DX2                !
 ! R3    R(1,7)                  1.4            estimate D2E/DX2                !
 ! R4    R(2,13)                 2.0058         estimate D2E/DX2                !
 ! R5    R(3,4)                  1.0699         estimate D2E/DX2                !
 ! R6    R(3,5)                  1.07           estimate D2E/DX2                !
 ! R7    R(3,6)                  1.07           estimate D2E/DX2                !
 ! R8    R(7,8)                  1.0            estimate D2E/DX2                !
 ! R9    R(7,9)                  1.449          estimate D2E/DX2                !
 ! R10   R(9,10)                 1.09           estimate D2E/DX2                !
 ! R11   R(9,11)                 1.525          estimate D2E/DX2                !
 ! R12   R(9,12)                 1.522          estimate D2E/DX2                !
 ! R13   R(11,13)                1.09           estimate D2E/DX2                !
 ! R14   R(11,14)                1.525          estimate D2E/DX2                !
 ! R15   R(11,15)                1.525          estimate D2E/DX2                !
 ! R16   R(12,16)                1.2584         estimate D2E/DX2                !
 ! R17   R(12,23)                1.4            estimate D2E/DX2                !
 ! R18   R(14,17)                1.09           estimate D2E/DX2                !
 ! R19   R(14,18)                1.09           estimate D2E/DX2                !
 ! R20   R(14,19)                1.09           estimate D2E/DX2                !
 ! R21   R(15,20)                1.09           estimate D2E/DX2                !
 ! R22   R(15,21)                1.09           estimate D2E/DX2                !
 ! R23   R(15,22)                1.09           estimate D2E/DX2                !
 ! R24   R(23,24)                1.0            estimate D2E/DX2                !
 ! R25   R(23,25)                1.47           estimate D2E/DX2                !
 ! R26   R(25,26)                1.07           estimate D2E/DX2                !
 ! R27   R(25,27)                1.07           estimate D2E/DX2                !
 ! R28   R(25,28)                1.07           estimate D2E/DX2                !
 ! A1    A(2,1,3)              122.2247         estimate D2E/DX2                !
 ! A2    A(2,1,7)              128.304          estimate D2E/DX2                !
 ! A3    A(3,1,7)              109.4713         estimate D2E/DX2                !
 ! A4    A(1,3,4)              109.4721         estimate D2E/DX2                !
 ! A5    A(1,3,5)              109.4711         estimate D2E/DX2                !
 ! A6    A(1,3,6)              109.4713         estimate D2E/DX2                !
 ! A7    A(4,3,5)              109.4721         estimate D2E/DX2                !
 ! A8    A(4,3,6)              109.4731         estimate D2E/DX2                !
 ! A9    A(5,3,6)              109.4677         estimate D2E/DX2                !
 ! A10   A(1,7,8)              130.5287         estimate D2E/DX2                !
 ! A11   A(1,7,9)              109.4713         estimate D2E/DX2                !
 ! A12   A(8,7,9)              120.0            estimate D2E/DX2                !
 ! A13   A(7,9,10)             109.5            estimate D2E/DX2                !
 ! A14   A(7,9,11)             111.1            estimate D2E/DX2                !
 ! A15   A(7,9,12)             111.1            estimate D2E/DX2                !
 ! A16   A(10,9,11)            108.6358         estimate D2E/DX2                !
 ! A17   A(10,9,12)            108.6358         estimate D2E/DX2                !
 ! A18   A(11,9,12)            107.7945         estimate D2E/DX2                !
 ! A19   A(9,11,13)            109.5            estimate D2E/DX2                !
 ! A20   A(9,11,14)            109.47           estimate D2E/DX2                !
 ! A21   A(9,11,15)            109.47           estimate D2E/DX2                !
 ! A22   A(13,11,14)           109.4574         estimate D2E/DX2                !
 ! A23   A(13,11,15)           109.4574         estimate D2E/DX2                !
 ! A24   A(14,11,15)           109.4724         estimate D2E/DX2                !
 ! A25   A(9,12,16)            120.0            estimate D2E/DX2                !
 ! A26   A(9,12,23)            111.1            estimate D2E/DX2                !
 ! A27   A(16,12,23)           128.9            estimate D2E/DX2                !
 ! A28   A(11,14,17)           109.5            estimate D2E/DX2                !
 ! A29   A(11,14,18)           109.5001         estimate D2E/DX2                !
 ! A30   A(11,14,19)           109.5            estimate D2E/DX2                !
 ! A31   A(17,14,18)           109.4424         estimate D2E/DX2                !
 ! A32   A(17,14,19)           109.4424         estimate D2E/DX2                !
 ! A33   A(18,14,19)           109.4425         estimate D2E/DX2                !
 ! A34   A(11,15,20)           109.5            estimate D2E/DX2                !
 ! A35   A(11,15,21)           109.5            estimate D2E/DX2                !
 ! A36   A(11,15,22)           109.5            estimate D2E/DX2                !
 ! A37   A(20,15,21)           109.4424         estimate D2E/DX2                !
 ! A38   A(20,15,22)           109.4424         estimate D2E/DX2                !
 ! A39   A(21,15,22)           109.4424         estimate D2E/DX2                !
 ! A40   A(12,23,24)           128.9            estimate D2E/DX2                !
 ! A41   A(12,23,25)           111.1            estimate D2E/DX2                !
 ! A42   A(24,23,25)           120.0            estimate D2E/DX2                !
 ! A43   A(23,25,26)           109.4712         estimate D2E/DX2                !
 ! A44   A(23,25,27)           109.4712         estimate D2E/DX2                !
 ! A45   A(23,25,28)           109.4712         estimate D2E/DX2                !
 ! A46   A(26,25,27)           109.4712         estimate D2E/DX2                !
 ! A47   A(26,25,28)           109.4712         estimate D2E/DX2                !
 ! A48   A(27,25,28)           109.4712         estimate D2E/DX2                !
 ! D1    D(2,1,3,4)            120.0029         estimate D2E/DX2                !
 ! D2    D(2,1,3,5)           -119.9956         estimate D2E/DX2                !
 ! D3    D(2,1,3,6)              0.0            estimate D2E/DX2                !
 ! D4    D(7,1,3,4)            -59.9971         estimate D2E/DX2                !
 ! D5    D(7,1,3,5)             60.0044         estimate D2E/DX2                !
 ! D6    D(7,1,3,6)            180.0            estimate D2E/DX2                !
 ! D7    D(2,1,7,8)            180.0            estimate D2E/DX2                !
 ! D8    D(2,1,7,9)              0.0            estimate D2E/DX2                !
 ! D9    D(3,1,7,8)              0.0            estimate D2E/DX2                !
 ! D10   D(3,1,7,9)            180.0            estimate D2E/DX2                !
 ! D11   D(1,3,6,7)              0.0            Frozen                          !
 ! D12   D(3,6,7,9)            180.0            Frozen                          !
 ! D13   D(1,7,9,10)           -60.0            estimate D2E/DX2                !
 ! D14   D(1,7,9,11)            60.0            estimate D2E/DX2                !
 ! D15   D(1,7,9,12)           180.0            estimate D2E/DX2                !
 ! D16   D(6,7,9,12)           180.0            Frozen                          !
 ! D17   D(8,7,9,10)           120.0            estimate D2E/DX2                !
 ! D18   D(8,7,9,11)          -120.0            estimate D2E/DX2                !
 ! D19   D(8,7,9,12)             0.0            estimate D2E/DX2                !
 ! D20   D(7,9,11,13)          -57.0            estimate D2E/DX2                !
 ! D21   D(7,9,11,14)           63.0            Frozen                          !
 ! D22   D(7,9,11,15)         -177.0            estimate D2E/DX2                !
 ! D23   D(10,9,11,13)          63.5121         estimate D2E/DX2                !
 ! D24   D(10,9,11,14)        -176.4879         estimate D2E/DX2                !
 ! D25   D(10,9,11,15)         -56.4879         estimate D2E/DX2                !
 ! D26   D(12,9,11,13)        -178.9449         estimate D2E/DX2                !
 ! D27   D(12,9,11,14)         -58.9449         estimate D2E/DX2                !
 ! D28   D(12,9,11,15)          61.0551         estimate D2E/DX2                !
 ! D29   D(7,9,12,16)            0.0            estimate D2E/DX2                !
 ! D30   D(7,9,12,23)          180.0            Frozen                          !
 ! D31   D(10,9,12,16)        -120.5121         estimate D2E/DX2                !
 ! D32   D(10,9,12,23)          59.4879         estimate D2E/DX2                !
 ! D33   D(11,9,12,16)         121.9449         estimate D2E/DX2                !
 ! D34   D(11,9,12,23)         -58.0551         estimate D2E/DX2                !
 ! D35   D(9,11,14,17)          60.0            estimate D2E/DX2                !
 ! D36   D(9,11,14,18)         180.0            estimate D2E/DX2                !
 ! D37   D(9,11,14,19)         -59.9999         estimate D2E/DX2                !
 ! D38   D(13,11,14,17)       -179.9739         estimate D2E/DX2                !
 ! D39   D(13,11,14,18)        -59.9739         estimate D2E/DX2                !
 ! D40   D(13,11,14,19)         60.0261         estimate D2E/DX2                !
 ! D41   D(15,11,14,17)        -59.9985         estimate D2E/DX2                !
 ! D42   D(15,11,14,18)         60.0014         estimate D2E/DX2                !
 ! D43   D(15,11,14,19)       -179.9985         estimate D2E/DX2                !
 ! D44   D(9,11,15,20)          60.0            estimate D2E/DX2                !
 ! D45   D(9,11,15,21)         180.0            estimate D2E/DX2                !
 ! D46   D(9,11,15,22)         -60.0            estimate D2E/DX2                !
 ! D47   D(13,11,15,20)        -60.0261         estimate D2E/DX2                !
 ! D48   D(13,11,15,21)         59.9739         estimate D2E/DX2                !
 ! D49   D(13,11,15,22)        179.9739         estimate D2E/DX2                !
 ! D50   D(14,11,15,20)        179.9985         estimate D2E/DX2                !
 ! D51   D(14,11,15,21)        -60.0015         estimate D2E/DX2                !
 ! D52   D(14,11,15,22)         59.9985         estimate D2E/DX2                !
 ! D53   D(9,12,23,24)           0.0            estimate D2E/DX2                !
 ! D54   D(9,12,23,25)         180.0            Frozen                          !
 ! D55   D(16,12,23,24)       -180.0            estimate D2E/DX2                !
 ! D56   D(16,12,23,25)          0.0            estimate D2E/DX2                !
 ! D57   D(12,23,25,26)        180.0            Frozen                          !
 ! D58   D(12,23,25,27)        -60.0            estimate D2E/DX2                !
 ! D59   D(12,23,25,28)         60.0            estimate D2E/DX2                !
 ! D60   D(24,23,25,26)          0.0            estimate D2E/DX2                !
 ! D61   D(24,23,25,27)        120.0            estimate D2E/DX2                !
 ! D62   D(24,23,25,28)       -120.0            estimate D2E/DX2                !
 --------------------------------------------------------------------------------
 Number of steps in this run=    148 maximum allowed number of steps=    168.
 GradGradGradGradGradGradGradGradGradGradGradGradGradGradGradGradGradGrad

                    Distance matrix (angstroms):
                    1          2          3          4          5
     1  C    0.000000
     2  O    1.227358   0.000000
     3  C    1.540034   2.427746   0.000000
     4  H    2.148268   3.106708   1.069950   0.000000
     5  H    2.148301   3.106705   1.070013   1.747282   0.000000
     6  H    2.148318   2.551361   1.070033   1.747309   1.747302
     7  N    1.400000   2.365698   2.401890   2.648342   2.648408
     8  H    2.186212   3.296804   2.654913   2.657603   2.657694
     9  C    2.326372   2.674296   3.699203   3.995292   3.995337
    10  H    2.576419   2.614324   4.003837   4.187139   4.543341
    11  C    2.821892   2.739904   4.233924   4.844213   4.377311
    12  C    3.684594   4.188981   4.851386   4.977202   4.977260
    13  H    2.465454   2.005759   3.851868   4.603212   4.092983
    14  C    3.492792   3.724072   4.566240   5.245728   4.339064
    15  C    4.190071   3.875142   5.675321   6.224914   5.891063
    16  O    4.078330   4.865407   4.915133   4.882973   4.883048
    17  H    4.191981   4.565215   5.237214   5.769297   4.972206
    18  H    4.240659   4.252523   5.276553   6.069653   5.007162
    19  H    3.050276   3.530353   3.821434   4.533895   3.417341
    20  H    4.300186   3.798978   5.838112   6.310221   6.237587
    21  H    4.831398   4.385477   6.261409   6.933761   6.399618
    22  H    4.788717   4.689310   6.228274   6.672398   6.372279
    23  N    4.736482   4.957122   6.058554   6.240299   6.240346
    24  H    4.901229   4.870603   6.342557   6.610321   6.610357
    25  C    6.016605   6.363456   7.218123   7.302772   7.302827
    26  H    6.818439   7.022961   8.104765   8.228611   8.228660
    27  H    6.210262   6.661635   7.308568   7.443641   7.235719
    28  H    6.210262   6.661635   7.308568   7.235673   7.443714
                    6          7          8          9         10
     6  H    0.000000
     7  N    3.317941   0.000000
     8  H    3.698500   1.000000   0.000000
     9  C    4.467373   1.449000   2.132745   0.000000
    10  H    4.639722   2.083780   2.836338   1.090000   0.000000
    11  C    4.812040   2.452797   3.200992   1.524999   2.139175
    12  C    5.750228   2.450295   2.557621   1.522000   2.136550
    13  H    4.211424   2.679672   3.575010   2.150224   2.486109
    14  C    5.224875   2.942386   3.339812   2.490296   3.430830
    15  C    6.199723   3.782128   4.486992   2.490295   2.676996
    16  O    5.924524   2.685650   2.294275   2.411502   3.105640
    17  H    6.017280   3.313851   3.479716   2.718824   3.695381
    18  H    5.791840   3.926378   4.380103   3.438592   4.260684
    19  H    4.509949   2.587356   2.836923   2.718823   3.725726
    20  H    6.280129   4.047069   4.842177   2.718823   2.446366
    21  H    6.684840   4.589721   5.307317   3.438591   3.680667
    22  H    6.881068   4.078062   4.592444   2.718823   3.008292
    23  N    6.872696   3.681753   3.936088   2.410528   2.653343
    24  H    7.045114   4.075714   4.530435   2.654608   2.649515
    25  C    8.110105   4.817286   4.826749   3.732020   4.022635
    26  H    8.947700   5.707875   5.813204   4.494659   4.652526
    27  H    8.239013   4.953349   4.836722   4.031011   4.564530
    28  H    8.239013   4.953349   4.836722   4.031011   4.210149
                   11         12         13         14         15
    11  C    0.000000
    12  C    2.461859   0.000000
    13  H    1.090000   3.416808   0.000000
    14  C    1.525000   2.873991   2.149683   0.000000
    15  C    1.525000   2.897021   2.149683   2.490333   0.000000
    16  O    3.438115   1.258400   4.336794   3.444987   4.079802
    17  H    2.150225   2.476725   3.048800   1.090001   2.718858
    18  H    2.150225   3.859441   2.475151   1.090000   2.718883
    19  H    2.150225   3.248529   2.475487   1.090000   3.438619
    20  H    2.150225   3.283426   2.475488   3.438619   1.090000
    21  H    2.150225   3.876629   2.475151   2.718882   1.090000
    22  H    2.150225   2.503423   3.048799   2.718858   1.090000
    23  N    2.831559   1.400000   3.837530   3.377807   2.467100
    24  H    2.730802   2.172164   3.615919   3.543876   1.883004
    25  C    4.183925   2.366991   5.236108   4.390614   3.752714
    26  H    4.749902   3.284956   5.766103   5.029016   3.984923
    27  H    4.333690   2.614962   5.422639   4.158449   4.071350
    28  H    4.804864   2.614962   5.817406   5.097387   4.541048
                   16         17         18         19         20
    16  O    0.000000
    17  H    2.892922   0.000000
    18  H    4.485345   1.779646   0.000000
    19  H    3.518413   1.779647   1.779647   0.000000
    20  H    4.535584   3.715795   3.715827   4.270915   0.000000
    21  H    4.989697   3.061649   2.491322   3.715826   1.779646
    22  H    3.625968   2.491268   3.061649   3.715795   1.779646
    23  N    2.399211   2.861592   4.116675   4.092640   2.760576
    24  H    3.321342   3.229470   4.100387   4.394896   1.963988
    25  C    2.747546   3.585224   5.078724   5.067803   4.095591
    26  H    3.806216   4.253524   5.562119   5.833173   4.229113
    27  H    2.690011   3.186672   4.802110   4.777726   4.647294
    28  H    2.690011   4.326367   5.901670   5.630729   4.744355
                   21         22         23         24         25
    21  H    0.000000
    22  H    1.779647   0.000000
    23  N    3.409091   1.692252   0.000000
    24  H    2.792176   1.188588   1.000000   0.000000
    25  C    4.538364   2.767176   1.470000   2.151953   0.000000
    26  H    4.639186   2.945768   2.086720   2.331044   1.070000
    27  H    4.726856   3.072101   2.086720   2.838084   1.070000
    28  H    5.428199   3.654204   2.086720   2.838084   1.070000
                   26         27         28
    26  H    0.000000
    27  H    1.747303   0.000000
    28  H    1.747303   1.747303   0.000000
 Framework group  C1[X(C8H16N2O2)]
 Deg. of freedom    78
                         Standard orientation:                         
 ---------------------------------------------------------------------
 Center     Atomic      Atomic             Coordinates (Angstroms)
 Number     Number       Type             X           Y           Z
 ---------------------------------------------------------------------
      1          6           0       -2.417982   -0.163905   -0.321828
      2          8           0       -2.534733    0.924654   -0.876638
      3          6           0       -3.636060   -0.983025    0.144042
      4          1           0       -3.638735   -1.931373   -0.351357
      5          1           0       -3.581229   -1.133421    1.202013
      6          1           0       -4.534575   -0.453294   -0.094761
      7          7           0       -1.242391   -0.856989   -0.009384
      8          1           0       -1.108717   -1.740528    0.439491
      9          6           0       -0.096315   -0.086289   -0.447716
     10          1           0       -0.151739    0.067267   -1.525422
     11          6           0       -0.056159    1.275683    0.237152
     12          6           0        1.204652   -0.807490   -0.125476
     13          1           0       -0.985482    1.809892    0.039465
     14          6           0        0.109450    1.083769    1.740936
     15          6           0        1.118847    2.082703   -0.304793
     16          8           0        1.178007   -1.926208    0.450139
     17          1           0        1.038850    0.549998    1.939446
     18          1           0        0.138212    2.056987    2.230955
     19          1           0       -0.730174    0.506953    2.128771
     20          1           0        1.000940    2.220123   -1.379648
     21          1           0        1.148009    3.056318    0.184413
     22          1           0        2.048625    1.549308   -0.107052
     23          7           0        2.311971   -0.062852   -0.548985
     24          1           0        2.333144    0.826148   -1.006402
     25          6           0        3.568490   -0.759413   -0.237754
     26          1           0        4.395873   -0.168838   -0.571757
     27          1           0        3.640880   -0.909256    0.819226
     28          1           0        3.583324   -1.707164   -0.734188
 ---------------------------------------------------------------------
 Rotational constants (GHZ):      1.5914360      0.6093367      0.5168038
    64 basis functions,   384 primitive gaussians,    64 cartesian basis functions
    35 alpha electrons       35 beta electrons
       nuclear repulsion energy       468.9974884604 Hartrees.
 Do NDO integrals.
 Simple Huckel Guess.
 Initial guess orbital symmetries:
       Occupied  (A) (A) (A) (A) (A) (A) (A) (A) (A) (A) (A) (A)
                 (A) (A) (A) (A) (A) (A) (A) (A) (A) (A) (A) (A)
                 (A) (A) (A) (A) (A) (A) (A) (A) (A) (A) (A)
       Virtual   (A) (A) (A) (A) (A) (A) (A) (A) (A) (A) (A) (A)
                 (A) (A) (A) (A) (A) (A) (A) (A) (A) (A) (A) (A)
                 (A) (A) (A) (A) (A)
 The electronic state of the initial guess is 1-A.
 Overlap will be assumed to be unity.
 SCF Done:  E(RPM6) = -0.104187732099     A.U. after   14 cycles
             Convg  =    0.4862D-08             -V/T =  0.9977

 **********************************************************************

            Population analysis using the SCF density.

 **********************************************************************

 Orbital symmetries:
       Occupied  (A) (A) (A) (A) (A) (A) (A) (A) (A) (A) (A) (A)
                 (A) (A) (A) (A) (A) (A) (A) (A) (A) (A) (A) (A)
                 (A) (A) (A) (A) (A) (A) (A) (A) (A) (A) (A)
       Virtual   (A) (A) (A) (A) (A) (A) (A) (A) (A) (A) (A) (A)
                 (A) (A) (A) (A) (A) (A) (A) (A) (A) (A) (A) (A)
                 (A) (A) (A) (A) (A)
 The electronic state is 1-A.
 Alpha  occ. eigenvalues --   -1.24260  -1.21291  -1.13282  -1.11093  -1.07152
 Alpha  occ. eigenvalues --   -0.98659  -0.95276  -0.91841  -0.87763  -0.80071
 Alpha  occ. eigenvalues --   -0.78045  -0.73712  -0.67694  -0.63037  -0.62333
 Alpha  occ. eigenvalues --   -0.60710  -0.58937  -0.57618  -0.56303  -0.55913
 Alpha  occ. eigenvalues --   -0.53811  -0.52889  -0.52121  -0.50556  -0.50224
 Alpha  occ. eigenvalues --   -0.49729  -0.49547  -0.48279  -0.45754  -0.45233
 Alpha  occ. eigenvalues --   -0.44029  -0.38964  -0.38121  -0.36921  -0.36497
 Alpha virt. eigenvalues --    0.02531   0.03785   0.04731   0.06493   0.10363
 Alpha virt. eigenvalues --    0.11842   0.12579   0.13172   0.13354   0.14719
 Alpha virt. eigenvalues --    0.15661   0.16911   0.18212   0.18657   0.19436
 Alpha virt. eigenvalues --    0.19515   0.19778   0.19788   0.19823   0.20491
 Alpha virt. eigenvalues --    0.21339   0.21635   0.21940   0.22772   0.23322
 Alpha virt. eigenvalues --    0.23815   0.24018   0.24561   0.25049
          Condensed to atoms (all electrons):
 Mulliken atomic charges:
              1
     1  C    0.637389
     2  O   -0.550789
     3  C   -0.608900
     4  H    0.183673
     5  H    0.182779
     6  H    0.195199
     7  N   -0.486723
     8  H    0.315824
     9  C   -0.123474
    10  H    0.164615
    11  C   -0.017581
    12  C    0.571814
    13  H    0.167938
    14  C   -0.495052
    15  C   -0.562058
    16  O   -0.561606
    17  H    0.157825
    18  H    0.155601
    19  H    0.160567
    20  H    0.158050
    21  H    0.175021
    22  H    0.190157
    23  N   -0.505171
    24  H    0.328858
    25  C   -0.301749
    26  H    0.144014
    27  H    0.161588
    28  H    0.162193
 Sum of Mulliken atomic charges =   0.00000
 Mulliken charges with hydrogens summed into heavy atoms:
              1
     1  C    0.637389
     2  O   -0.550789
     3  C   -0.047249
     7  N   -0.170899
     9  C    0.041141
    11  C    0.150357
    12  C    0.571814
    14  C   -0.021060
    15  C   -0.038831
    16  O   -0.561606
    23  N   -0.176313
    25  C    0.166045
 Sum of Mulliken charges with hydrogens summed into heavy atoms =   0.00000
 Charge=              0.0000 electrons
 Dipole moment (field-independent basis, Debye):
    X=              2.4419    Y=              0.6581    Z=              0.0385  Tot=              2.5293
 Calling FoFJK, ICntrl=      2127 FMM=F ISym2X=0 I1Cent= 0 IOpClX= 0 NMat=1 NMatS=1 NMatT=0.

 GradGradGradGradGradGradGradGradGradGradGradGradGradGradGradGradGradGrad
 Internal  Forces:  Max     0.171276115 RMS     0.039736671
 Step number   1 out of a maximum of  148
 All quantities printed in internal units (Hartrees-Bohrs-Radians)
 Mixed Optimization -- RFO/linear search
 Second derivative matrix not updated -- first step.
 ITU=  0
     Eigenvalues ---    0.00435   0.00435   0.00903   0.00957   0.01223
     Eigenvalues ---    0.01351   0.02047   0.03644   0.04296   0.04455
     Eigenvalues ---    0.04564   0.04628   0.04899   0.05654   0.05844
     Eigenvalues ---    0.05844   0.05844   0.05844   0.06678   0.07242
     Eigenvalues ---    0.07537   0.13479   0.15997   0.16000   0.16000
     Eigenvalues ---    0.16000   0.16000   0.16000   0.16000   0.16000
     Eigenvalues ---    0.16000   0.16000   0.16000   0.16000   0.16000
     Eigenvalues ---    0.16000   0.16000   0.16135   0.17763   0.22000
     Eigenvalues ---    0.24392   0.25000   0.25000   0.25000   0.28516
     Eigenvalues ---    0.29661   0.29890   0.29890   0.30175   0.34547
     Eigenvalues ---    0.34813   0.34813   0.34813   0.34813   0.34813
     Eigenvalues ---    0.34813   0.34813   0.35740   0.37226   0.37228
     Eigenvalues ---    0.37230   0.37230   0.37230   0.37236   0.37874
     Eigenvalues ---    0.45245   0.45621   0.47688   0.47688   0.80209
     Eigenvalues ---    0.921461000.000001000.000001000.000001000.00000
     Eigenvalues --- 1000.000001000.000001000.000001000.000001000.00000
     Eigenvalues --- 1000.000001000.000001000.000001000.000001000.00000
     Eigenvalues --- 1000.000001000.000001000.000001000.000001000.00000
     Eigenvalues --- 1000.000001000.000001000.000001000.000001000.00000
     Eigenvalues --- 1000.000001000.000001000.000001000.000001000.00000
     Eigenvalues --- 1000.000001000.000001000.000001000.000001000.00000
     Eigenvalues --- 1000.000001000.000001000.000001000.000001000.00000
     Eigenvalues --- 1000.000001000.000001000.000001000.000001000.00000
     Eigenvalues --- 1000.000001000.000001000.000001000.000001000.00000
     Eigenvalues --- 1000.000001000.000001000.000001000.000001000.00000
     Eigenvalues --- 1000.000001000.000001000.000001000.000001000.00000
     Eigenvalues --- 1000.000001000.000001000.000001000.000001000.00000
     Eigenvalues --- 1000.000001000.000001000.00000
 Linear search not attempted -- first point.
 Maximum step size (   0.300) exceeded in Quadratic search.
    -- Step size scaled by   0.437
 Iteration  1 RMS(Cart)=  0.21853204 RMS(Int)=  0.00806084
 Iteration  2 RMS(Cart)=  0.02328522 RMS(Int)=  0.00067820
 Iteration  3 RMS(Cart)=  0.00027655 RMS(Int)=  0.00067246
 Iteration  4 RMS(Cart)=  0.00000016 RMS(Int)=  0.00067246
 Iteration  1 RMS(Cart)=  0.00022269 RMS(Int)=  0.00012339
 Iteration  2 RMS(Cart)=  0.00015968 RMS(Int)=  0.00013493
 Iteration  3 RMS(Cart)=  0.00011687 RMS(Int)=  0.00015259
 Iteration  4 RMS(Cart)=  0.00008757 RMS(Int)=  0.00016764
 Iteration  5 RMS(Cart)=  0.00006756 RMS(Int)=  0.00017942
 Iteration  6 RMS(Cart)=  0.00005387 RMS(Int)=  0.00018869
 Iteration  7 RMS(Cart)=  0.00004438 RMS(Int)=  0.00019620
 Iteration  8 RMS(Cart)=  0.00003763 RMS(Int)=  0.00020249
 Iteration  9 RMS(Cart)=  0.00003265 RMS(Int)=  0.00020795
 Iteration 10 RMS(Cart)=  0.00002884 RMS(Int)=  0.00021280
 Iteration 11 RMS(Cart)=  0.00002579 RMS(Int)=  0.00021720
 Iteration 12 RMS(Cart)=  0.00002327 RMS(Int)=  0.00022123
 Iteration 13 RMS(Cart)=  0.00002113 RMS(Int)=  0.00022497
 Iteration 14 RMS(Cart)=  0.00001927 RMS(Int)=  0.00022845
 Iteration 15 RMS(Cart)=  0.00001763 RMS(Int)=  0.00023170
 Iteration 16 RMS(Cart)=  0.00001616 RMS(Int)=  0.00023473
 Iteration 17 RMS(Cart)=  0.00001484 RMS(Int)=  0.00023756
 Iteration 18 RMS(Cart)=  0.00001364 RMS(Int)=  0.00024020
 Iteration 19 RMS(Cart)=  0.00001254 RMS(Int)=  0.00024267
 Iteration 20 RMS(Cart)=  0.00001154 RMS(Int)=  0.00024497
 Iteration 21 RMS(Cart)=  0.00001062 RMS(Int)=  0.00024711
 Iteration 22 RMS(Cart)=  0.00000978 RMS(Int)=  0.00024910
 Iteration 23 RMS(Cart)=  0.00000901 RMS(Int)=  0.00025096
 Iteration 24 RMS(Cart)=  0.00000830 RMS(Int)=  0.00025268
 Iteration 25 RMS(Cart)=  0.00000764 RMS(Int)=  0.00025428
 Iteration 26 RMS(Cart)=  0.00000704 RMS(Int)=  0.00025577
 Iteration 27 RMS(Cart)=  0.00000649 RMS(Int)=  0.00025714
 Iteration 28 RMS(Cart)=  0.00000598 RMS(Int)=  0.00025842
 Iteration 29 RMS(Cart)=  0.00000551 RMS(Int)=  0.00025960
 Iteration 30 RMS(Cart)=  0.00000507 RMS(Int)=  0.00026069
 Iteration 31 RMS(Cart)=  0.00000467 RMS(Int)=  0.00026170
 Iteration 32 RMS(Cart)=  0.00000431 RMS(Int)=  0.00026264
 Iteration 33 RMS(Cart)=  0.00000397 RMS(Int)=  0.00026350
 Iteration 34 RMS(Cart)=  0.00000366 RMS(Int)=  0.00026430
 Iteration 35 RMS(Cart)=  0.00000337 RMS(Int)=  0.00026504
 Iteration 36 RMS(Cart)=  0.00000310 RMS(Int)=  0.00026573
 Iteration 37 RMS(Cart)=  0.00000286 RMS(Int)=  0.00026636
 Iteration 38 RMS(Cart)=  0.00000264 RMS(Int)=  0.00026694
 Iteration 39 RMS(Cart)=  0.00000243 RMS(Int)=  0.00026748
 Iteration 40 RMS(Cart)=  0.00000224 RMS(Int)=  0.00026797
 Iteration 41 RMS(Cart)=  0.00000206 RMS(Int)=  0.00026843
 Iteration 42 RMS(Cart)=  0.00000190 RMS(Int)=  0.00026886
 Iteration 43 RMS(Cart)=  0.00000175 RMS(Int)=  0.00026925
 Iteration 44 RMS(Cart)=  0.00000161 RMS(Int)=  0.00026961
 Iteration 45 RMS(Cart)=  0.00000149 RMS(Int)=  0.00026994
 Iteration 46 RMS(Cart)=  0.00000137 RMS(Int)=  0.00027025
 Iteration 47 RMS(Cart)=  0.00000126 RMS(Int)=  0.00027053
 Iteration 48 RMS(Cart)=  0.00000116 RMS(Int)=  0.00027079
 Iteration 49 RMS(Cart)=  0.00000107 RMS(Int)=  0.00027103
 Iteration 50 RMS(Cart)=  0.00000099 RMS(Int)=  0.00027125
 Variable       Old X    -DE/DX   Delta X   Delta X   Delta X     New X
                                 (Linear)    (Quad)   (Total)
    R1        2.31937  -0.02187   0.00000  -0.00783  -0.00787   2.31150
    R2        2.91024  -0.00669   0.00000  -0.00452  -0.00452   2.90572
    R3        2.64562   0.00868   0.00000   0.00747   0.00773   2.65335
    R4        3.79034  -0.00941   0.00000  -0.02091  -0.02139   3.76895
    R5        2.02191   0.01460   0.00000   0.00869   0.00869   2.03060
    R6        2.02203   0.01446   0.00000   0.00861   0.00861   2.03064
    R7        2.02207   0.01502   0.00000   0.00894   0.00894   2.03101
    R8        1.88973   0.00801   0.00000   0.00418   0.00418   1.89390
    R9        2.73821   0.05507   0.00000   0.03641   0.03677   2.77498
   R10        2.05980   0.02271   0.00000   0.01398   0.01398   2.07379
   R11        2.88183   0.14172   0.00000   0.09783   0.09810   2.97993
   R12        2.87616   0.08561   0.00000   0.05639   0.05639   2.93255
   R13        2.05980   0.01268   0.00000   0.00459   0.00430   2.06410
   R14        2.88183   0.02009   0.00000   0.01329   0.01329   2.89512
   R15        2.88183   0.02298   0.00000   0.01520   0.01520   2.89703
   R16        2.37803  -0.05720   0.00000  -0.02149  -0.02149   2.35654
   R17        2.64562  -0.01648   0.00000  -0.00881  -0.00881   2.63681
   R18        2.05980   0.00372   0.00000   0.00229   0.00229   2.06210
   R19        2.05980   0.00304   0.00000   0.00187   0.00187   2.06168
   R20        2.05980   0.00343   0.00000   0.00211   0.00211   2.06191
   R21        2.05980   0.00550   0.00000   0.00339   0.00339   2.06319
   R22        2.05980   0.00369   0.00000   0.00227   0.00227   2.06208
   R23        2.05980  -0.01140   0.00000  -0.00702  -0.00702   2.05278
   R24        1.88973   0.00832   0.00000   0.00434   0.00434   1.89406
   R25        2.77790   0.02724   0.00000   0.01655   0.01655   2.79445
   R26        2.02201   0.01791   0.00000   0.01066   0.01066   2.03267
   R27        2.02201   0.02048   0.00000   0.01219   0.01219   2.03420
   R28        2.02201   0.02065   0.00000   0.01230   0.01230   2.03430
    A1        2.13322  -0.00583   0.00000  -0.00838  -0.00869   2.12453
    A2        2.23933  -0.00522   0.00000   0.00469   0.00525   2.24458
    A3        1.91063   0.01105   0.00000   0.00369   0.00337   1.91401
    A4        1.91065   0.00675   0.00000   0.00558   0.00560   1.91625
    A5        1.91063   0.00317   0.00000   0.00284   0.00281   1.91344
    A6        1.91063   0.00022   0.00000   0.00007   0.00006   1.91070
    A7        1.91065  -0.00323   0.00000  -0.00247  -0.00248   1.90816
    A8        1.91067   0.00014   0.00000  -0.00027  -0.00022   1.91044
    A9        1.91057  -0.00704   0.00000  -0.00575  -0.00580   1.90477
   A10        2.27816  -0.04366   0.00000  -0.04123  -0.04180   2.23635
   A11        1.91063   0.08059   0.00000   0.07681   0.07783   1.98847
   A12        2.09439  -0.03693   0.00000  -0.03558  -0.03614   2.05825
   A13        1.91114   0.03214   0.00000   0.02876   0.02735   1.93849
   A14        1.93906  -0.08154   0.00000  -0.08114  -0.07820   1.86086
   A15        1.93906  -0.09033   0.00000  -0.06259  -0.05906   1.88000
   A16        1.89605  -0.00439   0.00000   0.00132  -0.00077   1.89528
   A17        1.89605  -0.02350   0.00000   0.00415   0.00299   1.89905
   A18        1.88137   0.17128   0.00000   0.11295   0.10914   1.99051
   A19        1.91114  -0.03645   0.00000  -0.02749  -0.02664   1.88449
   A20        1.91061  -0.03347   0.00000  -0.02356  -0.02300   1.88762
   A21        1.91061   0.12219   0.00000   0.10451   0.10491   2.01553
   A22        1.91039   0.02859   0.00000   0.02389   0.02302   1.93341
   A23        1.91039  -0.04060   0.00000  -0.04001  -0.03991   1.87048
   A24        1.91065  -0.04028   0.00000  -0.03735  -0.03806   1.87260
   A25        2.09439  -0.06504   0.00000  -0.04646  -0.04647   2.04792
   A26        1.93906   0.16557   0.00000   0.11828   0.11826   2.05732
   A27        2.24973  -0.10053   0.00000  -0.07182  -0.07183   2.17790
   A28        1.91114   0.00925   0.00000   0.00783   0.00781   1.91894
   A29        1.91114   0.00372   0.00000   0.00305   0.00304   1.91418
   A30        1.91114   0.00556   0.00000   0.00464   0.00463   1.91576
   A31        1.91013  -0.00636   0.00000  -0.00530  -0.00532   1.90481
   A32        1.91013  -0.00660   0.00000  -0.00539  -0.00542   1.90471
   A33        1.91013  -0.00560   0.00000  -0.00484  -0.00485   1.90529
   A34        1.91114   0.00574   0.00000   0.00598   0.00576   1.91690
   A35        1.91114  -0.00909   0.00000  -0.00936  -0.00929   1.90185
   A36        1.91114   0.03715   0.00000   0.03168   0.03152   1.94266
   A37        1.91013  -0.00536   0.00000  -0.00563  -0.00562   1.90452
   A38        1.91013   0.00008   0.00000   0.00355   0.00313   1.91326
   A39        1.91013  -0.02855   0.00000  -0.02625  -0.02612   1.88401
   A40        2.24973   0.00320   0.00000   0.00335   0.00333   2.25306
   A41        1.93906   0.01542   0.00000   0.01158   0.01156   1.95062
   A42        2.09440  -0.01862   0.00000  -0.01493  -0.01495   2.07945
   A43        1.91063   0.00424   0.00000   0.00359   0.00357   1.91421
   A44        1.91063   0.00452   0.00000   0.00251   0.00252   1.91315
   A45        1.91063   0.00520   0.00000   0.00560   0.00557   1.91620
   A46        1.91063  -0.00411   0.00000  -0.00593  -0.00590   1.90473
   A47        1.91063  -0.00439   0.00000  -0.00111  -0.00116   1.90948
   A48        1.91063  -0.00546   0.00000  -0.00465  -0.00465   1.90598
    D1        2.09445  -0.00081   0.00000  -0.00852  -0.00864   2.08581
    D2       -2.09432   0.00131   0.00000  -0.00638  -0.00650  -2.10082
    D3        0.00000  -0.00524   0.00000  -0.01164  -0.01185  -0.01185
    D4       -1.04715  -0.00428   0.00000   0.00313   0.00320  -1.04395
    D5        1.04727  -0.00217   0.00000   0.00526   0.00534   1.05261
    D6        3.14159  -0.00872   0.00000   0.00000  -0.00001   3.14158
    D7        3.14159   0.00289   0.00000  -0.00343  -0.00365   3.13794
    D8        0.00000   0.00969   0.00000   0.01255   0.01290   0.01290
    D9        0.00000   0.00664   0.00000  -0.01598  -0.01654  -0.01654
   D10        3.14159   0.01344   0.00000   0.00000   0.00001  -3.14158
   D11        0.00000  -0.00793   0.00000   0.00000  -0.00001  -0.00001
   D12        3.14159   0.00740   0.00000   0.00000   0.00000  -3.14159
   D13       -1.04720  -0.01148   0.00000  -0.01568  -0.01638  -1.06358
   D14        1.04720  -0.04756   0.00000  -0.04661  -0.04895   0.99825
   D15        3.14159   0.05392   0.00000   0.00000   0.00002  -3.14157
   D16        3.14159   0.04176   0.00000   0.00000   0.00000  -3.14159
   D17        2.09440  -0.00552   0.00000  -0.00166  -0.00165   2.09275
   D18       -2.09439  -0.04159   0.00000  -0.03259  -0.03422  -2.12861
   D19        0.00000   0.05989   0.00000   0.01402   0.01475   0.01475
   D20       -0.99484  -0.00228   0.00000   0.00202   0.00137  -0.99347
   D21        1.09956  -0.01011   0.00000   0.00000   0.00000   1.09956
   D22       -3.08923  -0.00512   0.00000   0.00382   0.00320  -3.08603
   D23        1.10850  -0.01580   0.00000  -0.01175  -0.01196   1.09653
   D24       -3.08030  -0.02362   0.00000  -0.01377  -0.01333  -3.09363
   D25       -0.98590  -0.01863   0.00000  -0.00996  -0.01013  -0.99603
   D26       -3.12318   0.04782   0.00000   0.05574   0.05718  -3.06600
   D27       -1.02878   0.03999   0.00000   0.05372   0.05581  -0.97297
   D28        1.06561   0.04499   0.00000   0.05754   0.05901   1.12462
   D29        0.00000  -0.01677   0.00000   0.00911   0.00954   0.00954
   D30        3.14159  -0.04820   0.00000   0.00000   0.00000  -3.14159
   D31       -2.10333   0.01455   0.00000   0.00957   0.00986  -2.09347
   D32        1.03826  -0.01689   0.00000   0.00046   0.00033   1.03859
   D33        2.12834  -0.06143   0.00000  -0.05609  -0.05719   2.07115
   D34       -1.01325  -0.09287   0.00000  -0.06520  -0.06673  -1.07998
   D35        1.04720   0.05105   0.00000   0.04176   0.04150   1.08870
   D36        3.14159   0.05122   0.00000   0.04193   0.04167  -3.09992
   D37       -1.04720   0.05006   0.00000   0.04072   0.04045  -1.00674
   D38       -3.14114   0.00342   0.00000   0.00829   0.00868  -3.13246
   D39       -1.04674   0.00359   0.00000   0.00846   0.00885  -1.03789
   D40        1.04765   0.00242   0.00000   0.00725   0.00763   1.05529
   D41       -1.04717  -0.05344   0.00000  -0.04893  -0.04906  -1.09623
   D42        1.04722  -0.05327   0.00000  -0.04876  -0.04888   0.99834
   D43       -3.14157  -0.05443   0.00000  -0.04997  -0.05010   3.09152
   D44        1.04720   0.00054   0.00000  -0.00176  -0.00151   1.04568
   D45        3.14159  -0.00808   0.00000  -0.01073  -0.01056   3.13103
   D46       -1.04720  -0.02586   0.00000  -0.02921  -0.02922  -1.07642
   D47       -1.04765  -0.00477   0.00000  -0.00758  -0.00688  -1.05453
   D48        1.04674  -0.01340   0.00000  -0.01655  -0.01592   1.03082
   D49        3.14114  -0.03118   0.00000  -0.03503  -0.03458   3.10655
   D50        3.14157   0.00970   0.00000   0.01050   0.00989  -3.13173
   D51       -1.04722   0.00108   0.00000   0.00153   0.00084  -1.04639
   D52        1.04717  -0.01670   0.00000  -0.01695  -0.01782   1.02935
   D53        0.00000   0.00068   0.00000  -0.01188  -0.01190  -0.01190
   D54        3.14159   0.01240   0.00000   0.00000   0.00000  -3.14159
   D55        3.14159  -0.03430   0.00000  -0.02202  -0.02221   3.11938
   D56        0.00000  -0.02258   0.00000  -0.01014  -0.01031  -0.01031
   D57        3.14159  -0.00524   0.00000   0.00000   0.00000  -3.14159
   D58       -1.04720  -0.00492   0.00000  -0.00354  -0.00350  -1.05070
   D59        1.04720  -0.00565   0.00000  -0.00427  -0.00423   1.04297
   D60        0.00000   0.00529   0.00000   0.01068   0.01057   0.01057
   D61        2.09440   0.00562   0.00000   0.00714   0.00708   2.10147
   D62       -2.09440   0.00488   0.00000   0.00641   0.00634  -2.08805
         Item               Value     Threshold  Converged?
 Maximum Force            0.165571     0.000450     NO 
 RMS     Force            0.039256     0.000300     NO 
 Maximum Displacement     0.897974     0.001800     NO 
 RMS     Displacement     0.235032     0.001200     NO 
 GradGradGradGradGradGradGradGradGradGradGradGradGradGradGradGradGradGrad

                    Distance matrix (angstroms):
                    1          2          3          4          5
     1  C    0.000000
     2  O    1.223194   0.000000
     3  C    1.537643   2.416337   0.000000
     4  H    2.153599   3.101075   1.074550   0.000000
     5  H    2.151587   3.103679   1.074570   1.753216   0.000000
     6  H    2.149745   2.539374   1.074765   1.754791   1.751278
     7  N    1.404092   2.368733   2.406009   2.657444   2.658833
     8  H    2.171124   3.287081   2.624700   2.633278   2.628852
     9  C    2.408431   2.789866   3.757840   4.043406   4.043478
    10  H    2.708487   2.787812   4.120717   4.293161   4.643424
    11  C    2.832718   2.784360   4.232674   4.850860   4.366243
    12  C    3.732008   4.311223   4.833089   4.930981   4.933010
    13  H    2.430151   1.994440   3.828011   4.574831   4.083364
    14  C    3.428031   3.698282   4.466516   5.160394   4.219814
    15  C    4.257380   3.966404   5.718368   6.307101   5.895008
    16  O    3.991887   4.848010   4.739469   4.678092   4.685999
    17  H    4.175956   4.581283   5.179433   5.731385   4.883034
    18  H    4.137075   4.187371   5.123329   5.938674   4.827215
    19  H    2.943457   3.472681   3.675785   4.391303   3.260362
    20  H    4.442474   3.963888   5.970794   6.484414   6.327929
    21  H    4.806126   4.386553   6.196227   6.913544   6.292902
    22  H    4.920466   4.828387   6.335069   6.834578   6.428400
    23  N    4.912198   5.270034   6.141362   6.269142   6.270517
    24  H    5.205449   5.335114   6.569747   6.776695   6.779396
    25  C    6.110670   6.617594   7.176882   7.193023   7.195598
    26  H    6.982068   7.370754   8.133149   8.179917   8.182015
    27  H    6.247984   6.853797   7.197884   7.267699   7.055482
    28  H    6.247378   6.851216   7.196122   7.051129   7.268598
                    6          7          8          9         10
     6  H    0.000000
     7  N    3.326267   0.000000
     8  H    3.674247   1.002210   0.000000
     9  C    4.546136   1.468458   2.130593   0.000000
    10  H    4.784238   2.125839   2.859508   1.097400   0.000000
    11  C    4.820895   2.442875   3.192276   1.576911   2.189607
    12  C    5.763856   2.439563   2.481985   1.551840   2.170377
    13  H    4.199450   2.628881   3.532312   2.177779   2.509831
    14  C    5.128495   2.891551   3.282481   2.517756   3.464931
    15  C    6.241381   3.852349   4.563023   2.630007   2.849752
    16  O    5.770625   2.587811   2.125073   2.395970   3.097920
    17  H    5.959881   3.314889   3.476457   2.758815   3.740976
    18  H    5.631111   3.858032   4.304313   3.477314   4.311145
    19  H    4.376012   2.493098   2.722206   2.716172   3.732309
    20  H    6.418479   4.167885   4.969337   2.877707   2.662961
    21  H    6.607707   4.593379   5.317165   3.551654   3.833787
    22  H    6.978909   4.230672   4.761109   2.911278   3.227081
    23  N    7.018013   3.735910   3.875489   2.525872   2.800648
    24  H    7.353070   4.211687   4.546672   2.816259   2.851049
    25  C    8.133350   4.807363   4.678389   3.828874   4.162966
    26  H    9.055979   5.737497   5.694541   4.619594   4.829155
    27  H    8.184433   4.911056   4.655167   4.111480   4.683441
    28  H    8.183109   4.909805   4.657398   4.111951   4.336503
                   11         12         13         14         15
    11  C    0.000000
    12  C    2.624740   0.000000
    13  H    1.092277   3.536660   0.000000
    14  C    1.532032   3.003831   2.174254   0.000000
    15  C    1.533044   3.234362   2.128846   2.468520   0.000000
    16  O    3.533875   1.247030   4.367354   3.530836   4.366807
    17  H    2.162994   2.634438   3.072829   1.091214   2.718845
    18  H    2.159360   4.025854   2.502344   1.090992   2.667383
    19  H    2.160610   3.278404   2.510079   1.091118   3.428307
    20  H    2.162827   3.609904   2.457693   3.429735   1.091793
    21  H    2.151381   4.208178   2.435487   2.680148   1.091204
    22  H    2.177252   2.952960   3.047583   2.705060   1.086286
    23  N    3.166250   1.395339   4.166679   3.627565   3.088149
    24  H    3.137495   2.171466   4.068932   3.837147   2.609363
    25  C    4.517616   2.379858   5.558076   4.657736   4.424857
    26  H    5.135747   3.300248   6.173473   5.338174   4.731035
    27  H    4.641450   2.638008   5.715619   4.420828   4.678224
    28  H    5.100660   2.637313   6.076295   5.327211   5.189424
                   16         17         18         19         20
    16  O    0.000000
    17  H    3.075009   0.000000
    18  H    4.597327   1.778090   0.000000
    19  H    3.475513   1.778130   1.778311   0.000000
    20  H    4.823357   3.721130   3.676185   4.280865   0.000000
    21  H    5.263627   3.059655   2.414329   3.670752   1.778545
    22  H    4.067844   2.500240   2.994141   3.725082   1.780044
    23  N    2.342518   3.053314   4.461226   4.219717   3.358464
    24  H    3.278417   3.388079   4.510174   4.600581   2.689337
    25  C    2.677908   3.837097   5.470621   5.162892   4.757638
    26  H    3.742828   4.499288   6.028431   5.977603   4.975350
    27  H    2.634345   3.458980   5.190625   4.854851   5.223523
    28  H    2.623307   4.581591   6.238788   5.677094   5.413161
                   21         22         23         24         25
    21  H    0.000000
    22  H    1.761023   0.000000
    23  N    4.067873   2.433931   0.000000
    24  H    3.574940   1.915646   1.002295   0.000000
    25  C    5.307794   3.591949   1.478760   2.152893   0.000000
    26  H    5.544895   3.785509   2.101158   2.333122   1.075643
    27  H    5.439471   3.818979   2.101009   2.848463   1.076453
    28  H    6.148264   4.471804   2.103227   2.846852   1.076508
                   26         27         28
    26  H    0.000000
    27  H    1.753503   0.000000
    28  H    1.756504   1.754987   0.000000
 Framework group  C1[X(C8H16N2O2)]
 Deg. of freedom    78
                         Standard orientation:                         
 ---------------------------------------------------------------------
 Center     Atomic      Atomic             Coordinates (Angstroms)
 Number     Number       Type             X           Y           Z
 ---------------------------------------------------------------------
      1          6           0       -2.400299   -0.328286   -0.308480
      2          8           0       -2.689902    0.706866   -0.892256
      3          6           0       -3.479484   -1.276232    0.240251
      4          1           0       -3.388199   -2.240145   -0.225790
      5          1           0       -3.360436   -1.382239    1.302932
      6          1           0       -4.452536   -0.869309    0.033603
      7          7           0       -1.127122   -0.856226   -0.040576
      8          1           0       -0.897781   -1.704509    0.441341
      9          6           0       -0.021560   -0.021115   -0.527086
     10          1           0       -0.067578    0.098510   -1.616976
     11          6           0       -0.198288    1.395780    0.142110
     12          6           0        1.306551   -0.733742   -0.157641
     13          1           0       -1.190291    1.770711   -0.119474
     14          6           0       -0.063502    1.227426    1.658887
     15          6           0        0.816451    2.460525   -0.290150
     16          8           0        1.223833   -1.825666    0.438969
     17          1           0        0.934489    0.861513    1.905606
     18          1           0       -0.224017    2.187924    2.150762
     19          1           0       -0.805432    0.512585    2.018164
     20          1           0        0.748382    2.621116   -1.367920
     21          1           0        0.590985    3.395415    0.225476
     22          1           0        1.829687    2.169615   -0.027963
     23          7           0        2.502527   -0.116024   -0.525115
     24          1           0        2.643601    0.745515   -1.017501
     25          6           0        3.679482   -0.908355   -0.108318
     26          1           0        4.580669   -0.402971   -0.407410
     27          1           0        3.677619   -1.022499    0.962064
     28          1           0        3.645451   -1.881082   -0.568223
 ---------------------------------------------------------------------
 Rotational constants (GHZ):      1.4367268      0.6027140      0.4913351
    64 basis functions,   384 primitive gaussians,    64 cartesian basis functions
    35 alpha electrons       35 beta electrons
       nuclear repulsion energy       462.2726204643 Hartrees.
 Do NDO integrals.
 Initial guess read from the read-write file.
 B after Tr=     0.000000    0.000000    0.000000
         Rot=    1.000000    0.000000    0.000000    0.000000 Ang=   0.00 deg.
 Initial guess orbital symmetries:
       Occupied  (A) (A) (A) (A) (A) (A) (A) (A) (A) (A) (A) (A)
                 (A) (A) (A) (A) (A) (A) (A) (A) (A) (A) (A) (A)
                 (A) (A) (A) (A) (A) (A) (A) (A) (A) (A) (A)
       Virtual   (A) (A) (A) (A) (A) (A) (A) (A) (A) (A) (A) (A)
                 (A) (A) (A) (A) (A) (A) (A) (A) (A) (A) (A) (A)
                 (A) (A) (A) (A) (A)
 Overlap will be assumed to be unity.
 SCF Done:  E(RPM6) = -0.159483303555     A.U. after   13 cycles
             Convg  =    0.7309D-08             -V/T =  0.9964
 Calling FoFJK, ICntrl=      2127 FMM=F ISym2X=0 I1Cent= 0 IOpClX= 0 NMat=1 NMatS=1 NMatT=0.

 GradGradGradGradGradGradGradGradGradGradGradGradGradGradGradGradGradGrad
 Using GEDIIS/GDIIS optimizer.
 Internal  Forces:  Max     0.034285097 RMS     0.008183198
 Step number   2 out of a maximum of  148
 All quantities printed in internal units (Hartrees-Bohrs-Radians)
 Mixed Optimization -- RFO/linear search
 Trust test= 3.77D-01 RLast= 3.57D-01 DXMaxT set to 3.00D-01
 ITU=  0  0
 Use linear search instead of GDIIS.
     Eigenvalues ---    0.00435   0.00439   0.00895   0.00959   0.01226
     Eigenvalues ---    0.01349   0.02121   0.03691   0.04216   0.04297
     Eigenvalues ---    0.04584   0.04711   0.05068   0.05356   0.05695
     Eigenvalues ---    0.05777   0.05802   0.05869   0.06673   0.07194
     Eigenvalues ---    0.07493   0.13764   0.15941   0.15990   0.15997
     Eigenvalues ---    0.15999   0.16000   0.16000   0.16000   0.16000
     Eigenvalues ---    0.16000   0.16000   0.16000   0.16000   0.16000
     Eigenvalues ---    0.16000   0.16533   0.17015   0.21700   0.21907
     Eigenvalues ---    0.24096   0.24946   0.24999   0.28263   0.28513
     Eigenvalues ---    0.29851   0.29889   0.30065   0.34380   0.34747
     Eigenvalues ---    0.34797   0.34813   0.34813   0.34813   0.34813
     Eigenvalues ---    0.34813   0.35644   0.36872   0.37226   0.37229
     Eigenvalues ---    0.37230   0.37230   0.37236   0.37676   0.45163
     Eigenvalues ---    0.45546   0.47660   0.47680   0.79228   0.92010
     Eigenvalues ---    1.267461000.000001000.000001000.000001000.00000
     Eigenvalues --- 1000.000001000.000001000.000001000.000001000.00000
     Eigenvalues --- 1000.000001000.000001000.000001000.000001000.00000
     Eigenvalues --- 1000.000001000.000001000.000001000.000001000.00000
     Eigenvalues --- 1000.000001000.000001000.000001000.000001000.00000
     Eigenvalues --- 1000.000001000.000001000.000001000.000001000.00000
     Eigenvalues --- 1000.000001000.000001000.000001000.000001000.00000
     Eigenvalues --- 1000.000001000.000001000.000001000.000001000.00000
     Eigenvalues --- 1000.000001000.000001000.000001000.000001000.00000
     Eigenvalues --- 1000.000001000.000001000.000001000.000001000.00000
     Eigenvalues --- 1000.000001000.000001000.000001000.000001000.00000
     Eigenvalues --- 1000.000001000.000001000.000001000.000001000.00000
     Eigenvalues --- 1000.000001000.000001000.000001000.000001000.00000
     Eigenvalues --- 1000.000001000.000001000.00000
 Quartic linear search produced a step of  0.67769.
 Maximum step size (   0.300) exceeded in Quadratic search.
    -- Step size scaled by   0.674
 Iteration  1 RMS(Cart)=  0.15689686 RMS(Int)=  0.00502207
 Iteration  2 RMS(Cart)=  0.00950785 RMS(Int)=  0.00096912
 Iteration  3 RMS(Cart)=  0.00003978 RMS(Int)=  0.00096874
 Iteration  4 RMS(Cart)=  0.00000002 RMS(Int)=  0.00096874
 Iteration  1 RMS(Cart)=  0.00037842 RMS(Int)=  0.00016109
 Iteration  2 RMS(Cart)=  0.00023985 RMS(Int)=  0.00017785
 Iteration  3 RMS(Cart)=  0.00015941 RMS(Int)=  0.00020226
 Iteration  4 RMS(Cart)=  0.00010986 RMS(Int)=  0.00022178
 Iteration  5 RMS(Cart)=  0.00007830 RMS(Int)=  0.00023590
 Iteration  6 RMS(Cart)=  0.00005783 RMS(Int)=  0.00024598
 Iteration  7 RMS(Cart)=  0.00004436 RMS(Int)=  0.00025331
 Iteration  8 RMS(Cart)=  0.00003534 RMS(Int)=  0.00025879
 Iteration  9 RMS(Cart)=  0.00002916 RMS(Int)=  0.00026305
 Iteration 10 RMS(Cart)=  0.00002479 RMS(Int)=  0.00026648
 Iteration 11 RMS(Cart)=  0.00002158 RMS(Int)=  0.00026935
 Iteration 12 RMS(Cart)=  0.00001911 RMS(Int)=  0.00027182
 Iteration 13 RMS(Cart)=  0.00001714 RMS(Int)=  0.00027401
 Iteration 14 RMS(Cart)=  0.00001551 RMS(Int)=  0.00027598
 Iteration 15 RMS(Cart)=  0.00001413 RMS(Int)=  0.00027778
 Iteration 16 RMS(Cart)=  0.00001292 RMS(Int)=  0.00027944
 Iteration 17 RMS(Cart)=  0.00001185 RMS(Int)=  0.00028098
 Iteration 18 RMS(Cart)=  0.00001090 RMS(Int)=  0.00028241
 Iteration 19 RMS(Cart)=  0.00001003 RMS(Int)=  0.00028375
 Iteration 20 RMS(Cart)=  0.00000925 RMS(Int)=  0.00028500
 Iteration 21 RMS(Cart)=  0.00000853 RMS(Int)=  0.00028617
 Iteration 22 RMS(Cart)=  0.00000787 RMS(Int)=  0.00028726
 Iteration 23 RMS(Cart)=  0.00000727 RMS(Int)=  0.00028829
 Iteration 24 RMS(Cart)=  0.00000671 RMS(Int)=  0.00028924
 Iteration 25 RMS(Cart)=  0.00000620 RMS(Int)=  0.00029013
 Iteration 26 RMS(Cart)=  0.00000573 RMS(Int)=  0.00029096
 Iteration 27 RMS(Cart)=  0.00000529 RMS(Int)=  0.00029174
 Iteration 28 RMS(Cart)=  0.00000489 RMS(Int)=  0.00029246
 Iteration 29 RMS(Cart)=  0.00000452 RMS(Int)=  0.00029313
 Iteration 30 RMS(Cart)=  0.00000418 RMS(Int)=  0.00029376
 Iteration 31 RMS(Cart)=  0.00000386 RMS(Int)=  0.00029434
 Iteration 32 RMS(Cart)=  0.00000357 RMS(Int)=  0.00029489
 Iteration 33 RMS(Cart)=  0.00000330 RMS(Int)=  0.00029539
 Iteration 34 RMS(Cart)=  0.00000305 RMS(Int)=  0.00029586
 Iteration 35 RMS(Cart)=  0.00000282 RMS(Int)=  0.00029629
 Iteration 36 RMS(Cart)=  0.00000260 RMS(Int)=  0.00029669
 Iteration 37 RMS(Cart)=  0.00000241 RMS(Int)=  0.00029707
 Iteration 38 RMS(Cart)=  0.00000222 RMS(Int)=  0.00029742
 Iteration 39 RMS(Cart)=  0.00000205 RMS(Int)=  0.00029774
 Iteration 40 RMS(Cart)=  0.00000190 RMS(Int)=  0.00029804
 Iteration 41 RMS(Cart)=  0.00000176 RMS(Int)=  0.00029831
 Iteration 42 RMS(Cart)=  0.00000162 RMS(Int)=  0.00029857
 Iteration 43 RMS(Cart)=  0.00000150 RMS(Int)=  0.00029881
 Iteration 44 RMS(Cart)=  0.00000139 RMS(Int)=  0.00029903
 Iteration 45 RMS(Cart)=  0.00000128 RMS(Int)=  0.00029923
 Iteration 46 RMS(Cart)=  0.00000118 RMS(Int)=  0.00029942
 Iteration 47 RMS(Cart)=  0.00000109 RMS(Int)=  0.00029959
 Iteration 48 RMS(Cart)=  0.00000101 RMS(Int)=  0.00029975
 Iteration 49 RMS(Cart)=  0.00000093 RMS(Int)=  0.00029990
 Variable       Old X    -DE/DX   Delta X   Delta X   Delta X     New X
                                 (Linear)    (Quad)   (Total)
    R1        2.31150  -0.01358  -0.00533  -0.01002  -0.01535   2.29615
    R2        2.90572  -0.00610  -0.00306  -0.01769  -0.02075   2.88497
    R3        2.65335  -0.01141   0.00524  -0.02560  -0.02039   2.63296
    R4        3.76895   0.01059  -0.01450   0.06069   0.04625   3.81520
    R5        2.03060   0.01193   0.00589   0.02623   0.03212   2.06273
    R6        2.03064   0.01202   0.00584   0.02649   0.03233   2.06297
    R7        2.03101   0.01242   0.00606   0.02737   0.03343   2.06444
    R8        1.89390   0.00974   0.00283   0.01763   0.02046   1.91437
    R9        2.77498   0.01987   0.02492   0.03612   0.06099   2.83597
   R10        2.07379   0.01226   0.00948   0.02691   0.03638   2.11017
   R11        2.97993  -0.00099   0.06648  -0.03205   0.03440   3.01433
   R12        2.93255  -0.00331   0.03821  -0.02957   0.00865   2.94120
   R13        2.06410   0.02095   0.00292   0.05108   0.05403   2.11814
   R14        2.89512   0.01252   0.00900   0.03327   0.04228   2.93740
   R15        2.89703   0.00619   0.01030   0.01347   0.02377   2.92081
   R16        2.35654  -0.03429  -0.01456  -0.02917  -0.04373   2.31281
   R17        2.63681  -0.01655  -0.00597  -0.03052  -0.03649   2.60032
   R18        2.06210   0.00239   0.00155   0.00543   0.00698   2.06908
   R19        2.06168   0.00235   0.00127   0.00550   0.00677   2.06844
   R20        2.06191   0.00253   0.00143   0.00587   0.00730   2.06922
   R21        2.06319   0.00224   0.00230   0.00457   0.00687   2.07005
   R22        2.06208   0.00321   0.00154   0.00762   0.00916   2.07123
   R23        2.05278   0.00391  -0.00476   0.01334   0.00858   2.06136
   R24        1.89406   0.00179   0.00294   0.00132   0.00425   1.89832
   R25        2.79445   0.01521   0.01122   0.03265   0.04387   2.83832
   R26        2.03267   0.01423   0.00723   0.03118   0.03840   2.07107
   R27        2.03420   0.01658   0.00826   0.03642   0.04469   2.07889
   R28        2.03430   0.01646   0.00833   0.03607   0.04440   2.07871
    A1        2.12453   0.00886  -0.00589   0.02851   0.02262   2.14715
    A2        2.24458  -0.03014   0.00356  -0.09707  -0.09360   2.15098
    A3        1.91401   0.02130   0.00229   0.06857   0.07087   1.98488
    A4        1.91625   0.00429   0.00379   0.02160   0.02514   1.94139
    A5        1.91344   0.00495   0.00190   0.02553   0.02710   1.94054
    A6        1.91070   0.00000   0.00004  -0.00235  -0.00230   1.90840
    A7        1.90816  -0.00303  -0.00168  -0.01000  -0.01223   1.89594
    A8        1.91044  -0.00335  -0.00015  -0.01932  -0.01939   1.89106
    A9        1.90477  -0.00292  -0.00393  -0.01576  -0.01976   1.88501
   A10        2.23635  -0.01307  -0.02833  -0.05551  -0.08383   2.15252
   A11        1.98847   0.01854   0.05274   0.07588   0.12845   2.11691
   A12        2.05825  -0.00548  -0.02449  -0.02039  -0.04485   2.01341
   A13        1.93849  -0.00366   0.01854  -0.02461  -0.00749   1.93100
   A14        1.86086   0.00868  -0.05299   0.02658  -0.02309   1.83777
   A15        1.88000  -0.00475  -0.04002  -0.03341  -0.06912   1.81088
   A16        1.89528  -0.00358  -0.00052   0.00263  -0.00153   1.89375
   A17        1.89905   0.00174   0.00203   0.02763   0.02675   1.92580
   A18        1.99051   0.00148   0.07396  -0.00071   0.06918   2.05970
   A19        1.88449  -0.00366  -0.01806  -0.03389  -0.05027   1.83423
   A20        1.88762   0.00838  -0.01558   0.06178   0.04459   1.93221
   A21        2.01553  -0.00800   0.07110  -0.02073   0.04887   2.06439
   A22        1.93341  -0.00277   0.01560  -0.03575  -0.01965   1.91377
   A23        1.87048   0.00298  -0.02705  -0.01456  -0.04063   1.82985
   A24        1.87260   0.00292  -0.02579   0.04029   0.01023   1.88283
   A25        2.04792   0.01379  -0.03149   0.05992   0.02841   2.07633
   A26        2.05732   0.00248   0.08014  -0.02121   0.05892   2.11625
   A27        2.17790  -0.01628  -0.04868  -0.03860  -0.08730   2.09060
   A28        1.91894   0.00520   0.00529   0.02633   0.03112   1.95007
   A29        1.91418   0.00343   0.00206   0.01545   0.01725   1.93143
   A30        1.91576   0.00633   0.00314   0.03071   0.03338   1.94914
   A31        1.90481  -0.00444  -0.00360  -0.02170  -0.02557   1.87924
   A32        1.90471  -0.00525  -0.00367  -0.02316  -0.02749   1.87722
   A33        1.90529  -0.00544  -0.00328  -0.02851  -0.03201   1.87328
   A34        1.91690   0.00358   0.00390   0.02207   0.02486   1.94175
   A35        1.90185   0.00247  -0.00629   0.00333  -0.00271   1.89914
   A36        1.94266   0.00495   0.02136   0.02810   0.04847   1.99113
   A37        1.90452  -0.00402  -0.00381  -0.02712  -0.03076   1.87375
   A38        1.91326  -0.00349   0.00212  -0.00059  -0.00046   1.91280
   A39        1.88401  -0.00376  -0.01770  -0.02776  -0.04513   1.83888
   A40        2.25306  -0.01929   0.00225  -0.07910  -0.07696   2.17610
   A41        1.95062   0.02628   0.00783   0.09870   0.10640   2.05702
   A42        2.07945  -0.00698  -0.01013  -0.01982  -0.03009   2.04936
   A43        1.91421   0.00284   0.00242   0.01479   0.01701   1.93121
   A44        1.91315   0.00335   0.00170   0.01429   0.01584   1.92899
   A45        1.91620   0.00309   0.00377   0.01587   0.01949   1.93569
   A46        1.90473  -0.00254  -0.00400  -0.01409  -0.01829   1.88644
   A47        1.90948  -0.00275  -0.00078  -0.00948  -0.01045   1.89902
   A48        1.90598  -0.00406  -0.00315  -0.02177  -0.02503   1.88095
    D1        2.08581  -0.00032  -0.00585  -0.01161  -0.01785   2.06796
    D2       -2.10082   0.00170  -0.00441   0.00541   0.00105  -2.09977
    D3       -0.01185   0.00115  -0.00803   0.00024  -0.00806  -0.01991
    D4       -1.04395  -0.00182   0.00217  -0.01185  -0.00979  -1.05373
    D5        1.05261   0.00020   0.00362   0.00517   0.00911   1.06173
    D6        3.14158  -0.00035  -0.00001   0.00000   0.00000   3.14158
    D7        3.13794  -0.00263  -0.00247  -0.00273  -0.00569   3.13225
    D8        0.01290  -0.00206   0.00874  -0.00149   0.00706   0.01996
    D9       -0.01654  -0.00061  -0.01121  -0.00124  -0.01276  -0.02930
   D10       -3.14158  -0.00004   0.00001  -0.00001   0.00000  -3.14158
   D11       -0.00001  -0.00032  -0.00001   0.00000   0.00000  -0.00001
   D12       -3.14159  -0.00047   0.00000   0.00000   0.00000  -3.14159
   D13       -1.06358  -0.00211  -0.01110  -0.00128  -0.01269  -1.07627
   D14        0.99825  -0.00323  -0.03317   0.00434  -0.03180   0.96645
   D15       -3.14157   0.00083   0.00001  -0.00002   0.00000  -3.14157
   D16       -3.14159   0.00069   0.00000   0.00000   0.00000  -3.14159
   D17        2.09275  -0.00150  -0.00112   0.00030  -0.00033   2.09242
   D18       -2.12861  -0.00262  -0.02319   0.00592  -0.01943  -2.14804
   D19        0.01475   0.00144   0.01000   0.00156   0.01236   0.02712
   D20       -0.99347   0.00075   0.00093   0.02704   0.02805  -0.96542
   D21        1.09956   0.00009   0.00000   0.00000   0.00000   1.09956
   D22       -3.08603   0.00481   0.00217   0.08412   0.08710  -2.99893
   D23        1.09653  -0.00066  -0.00811   0.01416   0.00593   1.10246
   D24       -3.09363  -0.00132  -0.00903  -0.01287  -0.02212  -3.11575
   D25       -0.99603   0.00340  -0.00687   0.07124   0.06498  -0.93105
   D26       -3.06600  -0.00006   0.03875   0.05105   0.09113  -2.97487
   D27       -0.97297  -0.00072   0.03782   0.02402   0.06307  -0.90990
   D28        1.12462   0.00401   0.03999   0.10813   0.15017   1.27480
   D29        0.00954  -0.00504   0.00646  -0.01243  -0.00559   0.00394
   D30       -3.14159  -0.00653   0.00000   0.00000   0.00000  -3.14159
   D31       -2.09347   0.00114   0.00668   0.02082   0.02852  -2.06495
   D32        1.03859  -0.00035   0.00022   0.03328   0.03411   1.07270
   D33        2.07115   0.00347  -0.03876  -0.00226  -0.04317   2.02798
   D34       -1.07998   0.00198  -0.04522   0.01019  -0.03758  -1.11756
   D35        1.08870  -0.00038   0.02812   0.02279   0.05086   1.13956
   D36       -3.09992  -0.00047   0.02824   0.02210   0.05020  -3.04972
   D37       -1.00674  -0.00111   0.02741   0.01564   0.04279  -0.96395
   D38       -3.13246  -0.00134   0.00588  -0.00150   0.00476  -3.12770
   D39       -1.03789  -0.00144   0.00600  -0.00219   0.00410  -1.03379
   D40        1.05529  -0.00208   0.00517  -0.00865  -0.00331   1.05198
   D41       -1.09623   0.00242  -0.03325  -0.01480  -0.04807  -1.14430
   D42        0.99834   0.00233  -0.03313  -0.01549  -0.04873   0.94960
   D43        3.09152   0.00169  -0.03395  -0.02195  -0.05615   3.03537
   D44        1.04568  -0.00462  -0.00103  -0.06578  -0.06639   0.97929
   D45        3.13103  -0.00587  -0.00716  -0.08362  -0.09086   3.04017
   D46       -1.07642  -0.00593  -0.01980  -0.09867  -0.11917  -1.19559
   D47       -1.05453   0.00298  -0.00466   0.00141  -0.00203  -1.05656
   D48        1.03082   0.00172  -0.01079  -0.01644  -0.02650   1.00432
   D49        3.10655   0.00166  -0.02344  -0.03148  -0.05481   3.05174
   D50       -3.13173   0.00312   0.00670   0.02979   0.03646  -3.09527
   D51       -1.04639   0.00187   0.00057   0.01194   0.01199  -1.03440
   D52        1.02935   0.00181  -0.01208  -0.00310  -0.01632   1.01303
   D53       -0.01190   0.00120  -0.00806  -0.02258  -0.02992  -0.04182
   D54       -3.14159   0.00098   0.00000   0.00000   0.00000  -3.14159
   D55        3.11938  -0.00022  -0.01505  -0.00851  -0.02358   3.09580
   D56       -0.01031  -0.00044  -0.00699   0.01406   0.00634  -0.00397
   D57       -3.14159  -0.00010   0.00000   0.00000   0.00000  -3.14159
   D58       -1.05070   0.00060  -0.00237   0.00062  -0.00191  -1.05260
   D59        1.04297  -0.00041  -0.00287  -0.00746  -0.01055   1.03241
   D60        0.01057  -0.00016   0.00717   0.02062   0.02816   0.03874
   D61        2.10147   0.00053   0.00480   0.02124   0.02626   2.12773
   D62       -2.08805  -0.00047   0.00430   0.01316   0.01761  -2.07044
         Item               Value     Threshold  Converged?
 Maximum Force            0.034285     0.000450     NO 
 RMS     Force            0.008346     0.000300     NO 
 Maximum Displacement     0.511386     0.001800     NO 
 RMS     Displacement     0.158322     0.001200     NO 
 GradGradGradGradGradGradGradGradGradGradGradGradGradGradGradGradGradGrad

                    Distance matrix (angstroms):
                    1          2          3          4          5
     1  C    0.000000
     2  O    1.215073   0.000000
     3  C    1.526661   2.414319   0.000000
     4  H    2.174675   3.120855   1.091549   0.000000
     5  H    2.174171   3.129599   1.091679   1.773287   0.000000
     6  H    2.151509   2.550794   1.092457   1.770805   1.767039
     7  N    1.393301   2.296469   2.446151   2.746329   2.748951
     8  H    2.125712   3.211369   2.622959   2.681811   2.670421
     9  C    2.522991   2.851360   3.866547   4.181668   4.183421
    10  H    2.860471   2.900096   4.261181   4.457507   4.810336
    11  C    2.949595   2.856341   4.348555   4.992246   4.520501
    12  C    3.746240   4.327701   4.809520   4.923801   4.927429
    13  H    2.498585   2.018915   3.909422   4.668563   4.218025
    14  C    3.502544   3.708656   4.552106   5.292261   4.343201
    15  C    4.383175   4.041269   5.838187   6.463789   6.054265
    16  O    3.918462   4.775946   4.625610   4.582692   4.589464
    17  H    4.290072   4.635460   5.288782   5.902338   5.007485
    18  H    4.186803   4.173707   5.183422   6.043189   4.931213
    19  H    3.013893   3.478340   3.767855   4.532743   3.386509
    20  H    4.599488   4.085870   6.117485   6.662172   6.509980
    21  H    4.874124   4.394066   6.261481   7.016079   6.408666
    22  H    5.127516   4.962435   6.538327   7.095249   6.662171
    23  N    4.997350   5.404147   6.154397   6.275997   6.279320
    24  H    5.324124   5.513404   6.625542   6.822215   6.833621
    25  C    6.208732   6.763039   7.188549   7.192748   7.197078
    26  H    7.110292   7.553115   8.177306   8.210696   8.214666
    27  H    6.361864   7.013244   7.218126   7.276277   7.059658
    28  H    6.358971   7.008118   7.212148   7.049378   7.272653
                    6          7          8          9         10
     6  H    0.000000
     7  N    3.364119   0.000000
     8  H    3.683400   1.013039   0.000000
     9  C    4.665593   1.500733   2.140266   0.000000
    10  H    4.939444   2.163431   2.881639   1.116654   0.000000
    11  C    4.943702   2.461640   3.207904   1.595117   2.218538
    12  C    5.767191   2.405295   2.380827   1.556415   2.208520
    13  H    4.287695   2.587524   3.505202   2.175287   2.506327
    14  C    5.202210   2.958626   3.357662   2.591146   3.543927
    15  C    6.355467   3.907092   4.630253   2.696220   2.906068
    16  O    5.679256   2.535660   2.003200   2.401105   3.121544
    17  H    6.055817   3.447793   3.615413   2.891665   3.885530
    18  H    5.670712   3.905332   4.369098   3.548512   4.383701
    19  H    4.452859   2.587432   2.818504   2.809816   3.839042
    20  H    6.565939   4.227528   5.037552   2.949234   2.725547
    21  H    6.654393   4.614434   5.363017   3.605215   3.870718
    22  H    7.165814   4.403585   4.954388   3.079451   3.382369
    23  N    7.078793   3.720234   3.755629   2.556970   2.893186
    24  H    7.464319   4.186893   4.428422   2.801250   2.895016
    25  C    8.188634   4.848266   4.615269   3.923361   4.298610
    26  H    9.148468   5.786779   5.644409   4.705026   4.956600
    27  H    8.244398   4.993468   4.631153   4.256792   4.864149
    28  H    8.239410   4.989654   4.633231   4.257634   4.518762
                   11         12         13         14         15
    11  C    0.000000
    12  C    2.701632   0.000000
    13  H    1.120870   3.584107   0.000000
    14  C    1.554404   3.133574   2.200985   0.000000
    15  C    1.545625   3.464608   2.129057   2.506040   0.000000
    16  O    3.586227   1.223888   4.371732   3.660970   4.565878
    17  H    2.207997   2.863093   3.123474   1.094909   2.808232
    18  H    2.194314   4.182608   2.535398   1.094574   2.700370
    19  H    2.207390   3.353346   2.557430   1.094982   3.478101
    20  H    2.194639   3.834735   2.469869   3.479086   1.095425
    21  H    2.163998   4.441149   2.413144   2.709756   1.096050
    22  H    2.225950   3.341686   3.082806   2.776940   1.090826
    23  N    3.321644   1.376029   4.330359   3.780675   3.480895
    24  H    3.268955   2.115570   4.243083   3.954318   2.995324
    25  C    4.716366   2.465954   5.757731   4.878783   4.855991
    26  H    5.331352   3.381633   6.389928   5.548110   5.165348
    27  H    4.888079   2.775615   5.960895   4.695071   5.151637
    28  H    5.332016   2.773614   6.290802   5.588348   5.635953
                   16         17         18         19         20
    16  O    0.000000
    17  H    3.328375   0.000000
    18  H    4.746314   1.767644   0.000000
    19  H    3.547215   1.766670   1.763843   0.000000
    20  H    5.010622   3.824747   3.715330   4.350375   0.000000
    21  H    5.467092   3.139919   2.442967   3.695536   1.765699
    22  H    4.443253   2.638925   3.025003   3.821009   1.786433
    23  N    2.250419   3.252305   4.686110   4.289584   3.770397
    24  H    3.177207   3.511268   4.715994   4.656233   3.122651
    25  C    2.698913   4.120880   5.767386   5.286873   5.195786
    26  H    3.775284   4.745200   6.328392   6.098043   5.426991
    27  H    2.711898   3.798376   5.545376   5.011817   5.688690
    28  H    2.699074   4.923692   6.558388   5.848338   5.871272
                   21         22         23         24         25
    21  H    0.000000
    22  H    1.739140   0.000000
    23  N    4.487792   2.983575   0.000000
    24  H    4.006871   2.410774   1.004547   0.000000
    25  C    5.793936   4.183484   1.501974   2.157465   0.000000
    26  H    6.059874   4.346661   2.148981   2.355177   1.095965
    27  H    5.977900   4.447728   2.150510   2.889889   1.100100
    28  H    6.633354   5.084776   2.155251   2.878370   1.100005
                   26         27         28
    26  H    0.000000
    27  H    1.777615   0.000000
    28  H    1.785612   1.777329   0.000000
 Framework group  C1[X(C8H16N2O2)]
 Deg. of freedom    78
                         Standard orientation:                         
 ---------------------------------------------------------------------
 Center     Atomic      Atomic             Coordinates (Angstroms)
 Number     Number       Type             X           Y           Z
 ---------------------------------------------------------------------
      1          6           0       -2.409322   -0.464385   -0.272888
      2          8           0       -2.759527    0.550089   -0.842626
      3          6           0       -3.395212   -1.485619    0.289068
      4          1           0       -3.273266   -2.458397   -0.190841
      5          1           0       -3.264429   -1.609126    1.365825
      6          1           0       -4.415877   -1.139519    0.110411
      7          7           0       -1.073441   -0.817183   -0.093328
      8          1           0       -0.779848   -1.658662    0.388299
      9          6           0        0.038116    0.065244   -0.581144
     10          1           0       -0.010598    0.182680   -1.690537
     11          6           0       -0.227873    1.487345    0.090629
     12          6           0        1.327872   -0.705374   -0.174812
     13          1           0       -1.273342    1.760075   -0.207640
     14          6           0       -0.134693    1.389780    1.639167
     15          6           0        0.638200    2.684715   -0.362337
     16          8           0        1.219689   -1.778848    0.402986
     17          1           0        0.878475    1.138075    1.969260
     18          1           0       -0.408330    2.342531    2.103364
     19          1           0       -0.811131    0.626549    2.037783
     20          1           0        0.574724    2.833358   -1.445772
     21          1           0        0.259558    3.595587    0.115435
[...]
 ! A31   A(17,14,18)           107.3724         -DE/DX =    0.0                 !
 ! A32   A(17,14,19)           107.255          -DE/DX =    0.0                 !
 ! A33   A(18,14,19)           107.1008         -DE/DX =    0.0                 !
 ! A34   A(11,15,20)           111.7117         -DE/DX =    0.0                 !
 ! A35   A(11,15,21)           110.0442         -DE/DX =    0.0                 !
 ! A36   A(11,15,22)           113.3331         -DE/DX =    0.0                 !
 ! A37   A(20,15,21)           106.4805         -DE/DX =    0.0                 !
 ! A38   A(20,15,22)           108.7706         -DE/DX =    0.0                 !
 ! A39   A(21,15,22)           106.1304         -DE/DX =    0.0                 !
 ! A40   A(12,23,24)           122.3428         -DE/DX =    0.0                 !
 ! A41   A(12,23,25)           119.8055         -DE/DX =    0.0                 !
 ! A42   A(24,23,25)           117.316          -DE/DX =    0.0                 !
 ! A43   A(23,25,26)           110.5374         -DE/DX =    0.0                 !
 ! A44   A(23,25,27)           111.1614         -DE/DX =    0.0                 !
 ! A45   A(23,25,28)           110.308          -DE/DX =    0.0                 !
 ! A46   A(26,25,27)           109.0384         -DE/DX =    0.0001              !
 ! A47   A(26,25,28)           108.9634         -DE/DX =   -0.0001              !
 ! A48   A(27,25,28)           106.7308         -DE/DX =    0.0                 !
 ! D1    D(2,1,3,4)            117.4889         -DE/DX =    0.0002              !
 ! D2    D(2,1,3,5)           -120.6209         -DE/DX =    0.0002              !
 ! D3    D(2,1,3,6)             -1.3417         -DE/DX =    0.0                 !
 ! D4    D(7,1,3,4)            -61.1696         -DE/DX =   -0.0002              !
 ! D5    D(7,1,3,5)             60.7206         -DE/DX =   -0.0002              !
 ! D6    D(7,1,3,6)            179.9998         -DE/DX =   -0.0004              !
 ! D7    D(2,1,7,8)            177.6434         -DE/DX =    0.0003              !
 ! D8    D(2,1,7,9)              1.3128         -DE/DX =    0.0                 !
 ! D9    D(3,1,7,8)             -3.6692         -DE/DX =    0.0007              !
 ! D10   D(3,1,7,9)           -179.9999         -DE/DX =    0.0004              !
 ! D11   D(1,3,6,7)             -0.0001         -DE/DX =   -0.0003              !
 ! D12   D(3,6,7,9)           -180.0            -DE/DX =    0.0002              !
 ! D13   D(1,7,9,10)           -62.85           -DE/DX =    0.0007              !
 ! D14   D(1,7,9,11)            57.1054         -DE/DX =   -0.0002              !
 ! D15   D(1,7,9,12)          -179.9997         -DE/DX =    0.0015              !
 ! D16   D(6,7,9,12)          -179.9999         -DE/DX =    0.0011              !
 ! D17   D(8,7,9,10)           120.6051         -DE/DX =    0.0004              !
 ! D18   D(8,7,9,11)          -119.4395         -DE/DX =   -0.0005              !
 ! D19   D(8,7,9,12)             3.4553         -DE/DX =    0.0012              !
 ! D20   D(7,9,11,13)          -53.5039         -DE/DX =    0.0018              !
 ! D21   D(7,9,11,14)           63.0002         -DE/DX =    0.0032              !
 ! D22   D(7,9,11,15)         -169.0819         -DE/DX =    0.0018              !
 ! D23   D(10,9,11,13)          66.414          -DE/DX =    0.0                 !
 ! D24   D(10,9,11,14)        -177.0819         -DE/DX =    0.0014              !
 ! D25   D(10,9,11,15)         -49.164          -DE/DX =    0.0                 !
 ! D26   D(12,9,11,13)        -171.238          -DE/DX =   -0.0002              !
 ! D27   D(12,9,11,14)         -54.7339         -DE/DX =    0.0012              !
 ! D28   D(12,9,11,15)          73.184          -DE/DX =   -0.0002              !
 ! D29   D(7,9,12,16)            1.9576         -DE/DX =   -0.0013              !
 ! D30   D(7,9,12,23)          179.9999         -DE/DX =   -0.0022              !
 ! D31   D(10,9,12,16)        -114.7935         -DE/DX =    0.0003              !
 ! D32   D(10,9,12,23)          63.2488         -DE/DX =   -0.0005              !
 ! D33   D(11,9,12,16)         123.1461         -DE/DX =    0.0003              !
 ! D34   D(11,9,12,23)         -58.8116         -DE/DX =   -0.0006              !
 ! D35   D(9,11,14,17)          64.725          -DE/DX =   -0.0005              !
 ! D36   D(9,11,14,18)        -174.9727         -DE/DX =   -0.0005              !
 ! D37   D(9,11,14,19)         -55.6549         -DE/DX =   -0.0005              !
 ! D38   D(13,11,14,17)        179.8251         -DE/DX =    0.0003              !
 ! D39   D(13,11,14,18)        -59.8727         -DE/DX =    0.0003              !
 ! D40   D(13,11,14,19)         59.4452         -DE/DX =    0.0003              !
 ! D41   D(15,11,14,17)        -63.3773         -DE/DX =    0.0002              !
 ! D42   D(15,11,14,18)         56.9249         -DE/DX =    0.0002              !
 ! D43   D(15,11,14,19)        176.2427         -DE/DX =    0.0002              !
 ! D44   D(9,11,15,20)          50.8426         -DE/DX =    0.0002              !
 ! D45   D(9,11,15,21)         168.8974         -DE/DX =    0.0002              !
 ! D46   D(9,11,15,22)         -72.4528         -DE/DX =    0.0002              !
 ! D47   D(13,11,15,20)        -63.9967         -DE/DX =    0.0001              !
 ! D48   D(13,11,15,21)         54.0581         -DE/DX =    0.0002              !
 ! D49   D(13,11,15,22)        172.7079         -DE/DX =    0.0002              !
 ! D50   D(14,11,15,20)        178.5593         -DE/DX =   -0.0003              !
 ! D51   D(14,11,15,21)        -63.3859         -DE/DX =   -0.0003              !
 ! D52   D(14,11,15,22)         55.2639         -DE/DX =   -0.0003              !
 ! D53   D(9,12,23,24)           8.6231         -DE/DX =    0.0004              !
 ! D54   D(9,12,23,25)         180.0            -DE/DX =    0.0005              !
 ! D55   D(16,12,23,24)       -173.3205         -DE/DX =   -0.0004              !
 ! D56   D(16,12,23,25)         -1.9436         -DE/DX =   -0.0003              !
 ! D57   D(12,23,25,26)        180.0            -DE/DX =   -0.0002              !
 ! D58   D(12,23,25,27)        -58.7651         -DE/DX =   -0.0001              !
 ! D59   D(12,23,25,28)         59.4254         -DE/DX =   -0.0001              !
 ! D60   D(24,23,25,26)         -8.1967         -DE/DX =   -0.0001              !
 ! D61   D(24,23,25,27)        113.0382         -DE/DX =    0.0                 !
 ! D62   D(24,23,25,28)       -128.7713         -DE/DX =    0.0                 !
 --------------------------------------------------------------------------------
 GradGradGradGradGradGradGradGradGradGradGradGradGradGradGradGradGradGrad

                    Distance matrix (angstroms):
                    1          2          3          4          5
     1  C    0.000000
     2  O    1.221526   0.000000
     3  C    1.504204   2.407084   0.000000
     4  H    2.171763   3.124784   1.098330   0.000000
     5  H    2.176178   3.144467   1.097237   1.774478   0.000000
     6  H    2.143914   2.554036   1.102420   1.769549   1.770260
     7  N    1.394683   2.287167   2.438958   2.763632   2.766337
     8  H    2.126058   3.212278   2.610482   2.700439   2.663124
     9  C    2.525755   2.843369   3.848788   4.186049   4.190116
    10  H    2.850824   2.886947   4.224593   4.432753   4.800789
    11  C    3.071430   2.977619   4.455596   5.097287   4.657492
    12  C    3.751092   4.317893   4.802817   4.942160   4.944343
    13  H    2.648274   2.178239   4.044467   4.812198   4.364415
    14  C    3.646489   3.825164   4.718784   5.457925   4.558245
    15  C    4.442239   4.123093   5.894081   6.481412   6.171142
    16  O    3.982577   4.825234   4.686933   4.660213   4.673833
    17  H    4.396041   4.730892   5.403962   6.014965   5.167602
    18  H    4.370537   4.333986   5.411586   6.261623   5.214944
    19  H    3.152015   3.561539   3.951700   4.733672   3.619162
    20  H    4.583897   4.119885   6.084582   6.575370   6.538098
    21  H    5.015071   4.532056   6.432672   7.142512   6.660995
    22  H    5.170318   5.034024   6.570240   7.082876   6.757011
    23  N    4.973917   5.343923   6.134298   6.291167   6.293972
    24  H    5.223927   5.365990   6.528134   6.786505   6.756652
    25  C    6.227864   6.727317   7.236880   7.285699   7.287361
    26  H    7.090807   7.465687   8.191769   8.275972   8.278237
    27  H    6.422434   7.025868   7.309771   7.406619   7.193131
    28  H    6.412756   7.008247   7.302181   7.183502   7.401828
                    6          7          8          9         10
     6  H    0.000000
     7  N    3.368457   0.000000
     8  H    3.683435   1.029104   0.000000
     9  C    4.661646   1.486813   2.142939   0.000000
    10  H    4.918390   2.134150   2.874687   1.122799   0.000000
    11  C    5.078698   2.509108   3.240489   1.559200   2.198058
    12  C    5.771746   2.405408   2.397643   1.547782   2.194843
    13  H    4.450050   2.648645   3.558134   2.154613   2.516128
    14  C    5.390907   3.038744   3.426885   2.559029   3.517167
    15  C    6.459023   3.866248   4.579910   2.571081   2.735835
    16  O    5.751552   2.598939   2.079712   2.425206   3.116432
    17  H    6.196126   3.501422   3.647941   2.873700   3.868448
    18  H    5.933698   4.000512   4.454608   3.515905   4.354026
    19  H    4.639466   2.688347   2.923389   2.788665   3.828001
    20  H    6.589727   4.104699   4.903405   2.773343   2.472515
    21  H    6.875069   4.647486   5.399228   3.512901   3.707581
    22  H    7.247197   4.350258   4.879105   2.964696   3.225618
    23  N    7.061029   3.702694   3.781681   2.511300   2.836243
    24  H    7.362072   4.104516   4.401521   2.702493   2.841681
    25  C    8.234307   4.876760   4.704924   3.885874   4.230254
    26  H    9.153850   5.785540   5.716041   4.639863   4.857101
    27  H    8.337277   5.056656   4.740975   4.250054   4.830530
    28  H    8.328821   5.047886   4.755977   4.238856   4.457088
                   11         12         13         14         15
    11  C    0.000000
    12  C    2.598551   0.000000
    13  H    1.133258   3.521186   0.000000
    14  C    1.527475   3.042308   2.158607   0.000000
    15  C    1.528815   3.240905   2.145197   2.539473   0.000000
    16  O    3.559589   1.226537   4.389109   3.667949   4.406275
    17  H    2.192450   2.764048   3.099642   1.095687   2.850257
    18  H    2.177046   4.080669   2.495067   1.096210   2.781409
    19  H    2.181575   3.316794   2.497357   1.096836   3.496004
    20  H    2.186222   3.560918   2.516624   3.498507   1.096409
    21  H    2.167535   4.259628   2.426216   2.818016   1.099428
    22  H    2.205874   3.084097   3.094986   2.804048   1.096021
    23  N    3.106559   1.384376   4.156621   3.581361   3.082165
    24  H    2.900627   2.111133   3.916700   3.567820   2.400157
    25  C    4.494800   2.477206   5.579676   4.679345   4.413755
    26  H    5.051851   3.389273   6.139361   5.291002   4.640601
    27  H    4.722232   2.793683   5.831886   4.543745   4.817900
    28  H    5.149662   2.785178   6.166322   5.440533   5.203315
                   16         17         18         19         20
    16  O    0.000000
    17  H    3.291546   0.000000
    18  H    4.748224   1.766199   0.000000
    19  H    3.627424   1.765373   1.764041   0.000000
    20  H    4.771659   3.846202   3.801233   4.343704   0.000000
    21  H    5.377194   3.252050   2.614524   3.798977   1.759200
    22  H    4.226562   2.678112   3.096444   3.836316   1.782339
    23  N    2.271213   3.066254   4.442182   4.175688   3.347182
    24  H    3.190630   3.168500   4.252713   4.364433   2.587620
    25  C    2.756551   3.908913   5.501304   5.207283   4.710682
    26  H    3.831880   4.502123   5.978454   5.965265   4.868338
    27  H    2.776083   3.616993   5.332164   4.973940   5.321239
    28  H    2.750490   4.746146   6.354377   5.829680   5.360226
                   21         22         23         24         25
    21  H    0.000000
    22  H    1.754867   0.000000
    23  N    4.092625   2.514114   0.000000
    24  H    3.368586   1.714775   1.016909   0.000000
    25  C    5.338860   3.638397   1.478346   2.144615   0.000000
    26  H    5.475194   3.720340   2.129112   2.337986   1.098955
    27  H    5.647653   4.023814   2.142210   2.846910   1.105946
    28  H    6.202267   4.545570   2.132122   2.914235   1.106697
                   26         27         28
    26  H    0.000000
    27  H    1.795477   0.000000
    28  H    1.795252   1.775551   0.000000
 Framework group  C1[X(C8H16N2O2)]
 Deg. of freedom    78
                         Standard orientation:                         
 ---------------------------------------------------------------------
 Center     Atomic      Atomic             Coordinates (Angstroms)
 Number     Number       Type             X           Y           Z
 ---------------------------------------------------------------------
      1          6           0       -2.500979   -0.320120   -0.255372
      2          8           0       -2.764821    0.742383   -0.797220
      3          6           0       -3.542404   -1.280557    0.250221
      4          1           0       -3.500736   -2.248042   -0.268012
      5          1           0       -3.452691   -1.471768    1.326937
      6          1           0       -4.548108   -0.863901    0.076186
      7          7           0       -1.185392   -0.750349   -0.084278
      8          1           0       -0.959684   -1.627954    0.403492
      9          6           0       -0.018235    0.060970   -0.520301
     10          1           0       -0.058511    0.187338   -1.635239
     11          6           0       -0.037107    1.468148    0.150966
     12          6           0        1.219066   -0.787849   -0.140534
     13          1           0       -1.060385    1.895345   -0.082865
     14          6           0        0.087550    1.378864    1.670725
     15          6           0        0.982744    2.428464   -0.461385
     16          8           0        1.102268   -1.897061    0.369760
     17          1           0        1.053775    0.969773    1.986295
     18          1           0       -0.016400    2.367082    2.133645
     19          1           0       -0.692679    0.738181    2.099463
     20          1           0        0.900355    2.464908   -1.554087
     21          1           0        0.801325    3.451057   -0.100646
     22          1           0        2.018520    2.190358   -0.193550
     23          7           0        2.469492   -0.271270   -0.433925
     24          1           0        2.600721    0.681635   -0.763855
     25          6           0        3.682538   -1.043600   -0.091091
     26          1           0        4.586410   -0.494485   -0.389741
     27          1           0        3.729383   -1.252599    0.993916
     28          1           0        3.671398   -2.024088   -0.604215
 ---------------------------------------------------------------------
 Rotational constants (GHZ):      1.3835926      0.5919405      0.4760302

 **********************************************************************

            Population analysis using the SCF density.

 **********************************************************************

 Orbital symmetries:
       Occupied  (A) (A) (A) (A) (A) (A) (A) (A) (A) (A) (A) (A)
                 (A) (A) (A) (A) (A) (A) (A) (A) (A) (A) (A) (A)
                 (A) (A) (A) (A) (A) (A) (A) (A) (A) (A) (A)
       Virtual   (A) (A) (A) (A) (A) (A) (A) (A) (A) (A) (A) (A)
                 (A) (A) (A) (A) (A) (A) (A) (A) (A) (A) (A) (A)
                 (A) (A) (A) (A) (A)
 The electronic state is 1-A.
 Alpha  occ. eigenvalues --   -1.21047  -1.19061  -1.13161  -1.10811  -1.05107
 Alpha  occ. eigenvalues --   -0.97839  -0.94164  -0.90314  -0.87341  -0.78083
 Alpha  occ. eigenvalues --   -0.77106  -0.71640  -0.67239  -0.61784  -0.61312
 Alpha  occ. eigenvalues --   -0.60083  -0.58136  -0.57669  -0.56406  -0.55080
 Alpha  occ. eigenvalues --   -0.53033  -0.52393  -0.51315  -0.50586  -0.49919
 Alpha  occ. eigenvalues --   -0.49666  -0.48991  -0.48466  -0.45383  -0.45368
 Alpha  occ. eigenvalues --   -0.43666  -0.39054  -0.38041  -0.37045  -0.35924
 Alpha virt. eigenvalues --    0.03286   0.04665   0.04684   0.06607   0.10624
 Alpha virt. eigenvalues --    0.12728   0.12853   0.14238   0.15079   0.15405
 Alpha virt. eigenvalues --    0.16036   0.17055   0.18370   0.18580   0.19004
 Alpha virt. eigenvalues --    0.19021   0.19152   0.19385   0.20025   0.20113
 Alpha virt. eigenvalues --    0.20949   0.21257   0.21371   0.22510   0.22672
 Alpha virt. eigenvalues --    0.22902   0.23967   0.24361   0.24895
          Condensed to atoms (all electrons):
 Mulliken atomic charges:
              1
     1  C    0.650644
     2  O   -0.571564
     3  C   -0.614891
     4  H    0.192272
     5  H    0.188928
     6  H    0.202650
     7  N   -0.530745
     8  H    0.306168
     9  C   -0.052530
    10  H    0.163642
    11  C   -0.026582
    12  C    0.545174
    13  H    0.170154
    14  C   -0.490907
    15  C   -0.502410
    16  O   -0.568228
    17  H    0.152641
    18  H    0.155060
    19  H    0.160350
    20  H    0.156126
    21  H    0.166225
    22  H    0.142086
    23  N   -0.464104
    24  H    0.277212
    25  C   -0.273637
    26  H    0.144189
    27  H    0.157859
    28  H    0.164216
 Sum of Mulliken atomic charges =   0.00000
 Mulliken charges with hydrogens summed into heavy atoms:
              1
     1  C    0.650644
     2  O   -0.571564
     3  C   -0.031040
     7  N   -0.224577
     9  C    0.111112
    11  C    0.143572
    12  C    0.545174
    14  C   -0.022855
    15  C   -0.037973
    16  O   -0.568228
    23  N   -0.186892
    25  C    0.192627
 Sum of Mulliken charges with hydrogens summed into heavy atoms =   0.00000
 Charge=              0.0000 electrons
 Dipole moment (field-independent basis, Debye):
    X=              3.0695    Y=              0.5654    Z=              0.6859  Tot=              3.1956
 1\1\GINC-SUNRAY\FOpt\RPM6\ZDO\C8H16N2O2\ANDERSX\06-Sep-2012\0\\#t opt=
 modredundant pm6\\No Title\\0,1\C,-8.2302235806,-4.6328385319,-0.13223
 62512\O,-8.5287538834,-5.3338361715,0.8225447477\C,-8.5822944567,-4.96
 7379812,-1.5558785711\H,-9.245728019,-4.2168697897,-2.0063432781\H,-7.
 6976852196,-5.0628096597,-2.1979753963\H,-9.1151745436,-5.9318423589,-
 1.5902542947\N,-7.5496212041,-3.4259860112,0.0272222041\H,-7.265919004
 9,-2.8515228803,-0.7781100382\C,-7.1170029681,-2.9245700859,1.35840032
 58\H,-8.0258209898,-2.7428020596,1.9921882482\C,-6.1995827427,-3.96338
 37703,2.0727598609\C,-6.4131659115,-1.577573728,1.0654080148\H,-6.7878
 580867,-4.9319843152,2.0685472481\C,-4.9042685965,-4.208773384,1.30131
 67942\C,-5.9465498656,-3.6173945111,3.5402551754\O,-6.341909473,-1.126
 8874782,-0.0730985547\H,-4.2719083281,-3.3152489451,1.2537189109\H,-4.
 3120108316,-5.0044218204,1.7680604259\H,-5.1058966636,-4.5200266324,0.
 269078004\H,-6.8816124933,-3.4187270731,4.07719307\H,-5.468166962,-4.4
 657405586,4.0503531192\H,-5.274020243,-2.7625184525,3.6749880474\N,-5.
 8990847997,-0.8721213859,2.1399102898\H,-5.855268343,-1.2640960019,3.0
 772144066\C,-5.2176326567,0.4199102729,1.9123469634\H,-4.8712414836,0.
 846004809,2.8642707596\H,-4.3521304932,0.300801542,1.2342355175\H,-5.9
 06472869,1.1371834278,1.4267589653\\Version=EM64L-G09RevB.01\State=1-A
 \HF=-0.1799439\RMSD=7.495e-09\RMSF=1.094e-03\Dipole=0.8810856,0.705313
 8,0.5540085\PG=C01 [X(C8H16N2O2)]\\@


 THE PROMISED LAND ALWAYS LIES ON THE OTHER SIDE OF A WILDERNESS.

                         -- HAVELOCK ELLIS
 Job cpu time:  0 days  0 hours  0 minutes  8.0 seconds.
 File lengths (MBytes):  RWF=      9 Int=      0 D2E=      0 Chk=      2 Scr=      1
 Normal termination of Gaussian 09 at Thu Sep  6 10:25:57 2012.
